********************************************************************************
*                       GENERAL UTILITY LATTICE PROGRAM                        *
*                                 Julian Gale                                  *
*                      Nanochemistry Research Institute                        *
*                           Department of Chemistry                            *
*                    Curtin University, Western Australia                      *
********************************************************************************
* Version = 4.3.5 * Last modified = 16th December 2015                         *
********************************************************************************
*  single       - perform a single point run                                   *
*  conp         - constant pressure calculation                                *
*  phonon       - calculate phonons for final geometry                         *
********************************************************************************
* ASE calculation                                                              *
********************************************************************************


  Job Started  at 13:59.20 21st November   2022                               

  Number of CPUs =     1


  Total number of configurations input =   1

********************************************************************************
*  Input for Configuration =   1                                               *
********************************************************************************

  Formula = MgO                                                         

  Number of irreducible atoms/shells =       2


  Total number atoms/shells =       2

  Dimensionality = 3               :  Bulk   



  Cartesian lattice vectors (Angstroms) :

        2.978334    0.000000    0.000000
        1.489167    2.579313    0.000000
        1.489167    0.859771    2.431800

  Cell parameters (Angstroms/Degrees):

  a =       2.9783    alpha =  60.0000
  b =       2.9783    beta  =  60.0000
  c =       2.9783    gamma =  60.0000

  Initial cell volume =          18.681219 Angs**3

  Shrinking factors =     16    16    16

  Temperature of configuration =  0.000     K 

  Pressure of configuration =         0.000 GPa 

  Fractional coordinates of asymmetric unit :

--------------------------------------------------------------------------------
   No.  Atomic       x           y          z         Charge      Occupancy
        Label      (Frac)      (Frac)     (Frac)        (e)         (Frac)  
--------------------------------------------------------------------------------
      1 Mg    c    0.000000    0.000000    0.000000     2.00000    1.000000    
      2 O     c    0.500000    0.500000    0.500000    -2.00000    1.000000    
--------------------------------------------------------------------------------


  Brillouin zone sampling points :

--------------------------------------------------------------------------------
  Point number          x          y          z            Weight
--------------------------------------------------------------------------------
        1           0.500000   0.250000   0.750000         0.0003
        2           0.500000   0.253049   0.746951         0.0003
        3           0.500000   0.256098   0.743902         0.0003
        4           0.500000   0.259146   0.740854         0.0003
        5           0.500000   0.262195   0.737805         0.0003
        6           0.500000   0.265244   0.734756         0.0003
        7           0.500000   0.268293   0.731707         0.0003
        8           0.500000   0.271341   0.728659         0.0003
        9           0.500000   0.274390   0.725610         0.0003
       10           0.500000   0.277439   0.722561         0.0003
       11           0.500000   0.280488   0.719512         0.0003
       12           0.500000   0.283537   0.716463         0.0003
       13           0.500000   0.286585   0.713415         0.0003
       14           0.500000   0.289634   0.710366         0.0003
       15           0.500000   0.292683   0.707317         0.0003
       16           0.500000   0.295732   0.704268         0.0003
       17           0.500000   0.298780   0.701220         0.0003
       18           0.500000   0.301829   0.698171         0.0003
       19           0.500000   0.304878   0.695122         0.0003
       20           0.500000   0.307927   0.692073         0.0003
       21           0.500000   0.310976   0.689024         0.0003
       22           0.500000   0.314024   0.685976         0.0003
       23           0.500000   0.317073   0.682927         0.0003
       24           0.500000   0.320122   0.679878         0.0003
       25           0.500000   0.323171   0.676829         0.0003
       26           0.500000   0.326220   0.673780         0.0003
       27           0.500000   0.329268   0.670732         0.0003
       28           0.500000   0.332317   0.667683         0.0003
       29           0.500000   0.335366   0.664634         0.0003
       30           0.500000   0.338415   0.661585         0.0003
       31           0.500000   0.341463   0.658537         0.0003
       32           0.500000   0.344512   0.655488         0.0003
       33           0.500000   0.347561   0.652439         0.0003
       34           0.500000   0.350610   0.649390         0.0003
       35           0.500000   0.353659   0.646341         0.0003
       36           0.500000   0.356707   0.643293         0.0003
       37           0.500000   0.359756   0.640244         0.0003
       38           0.500000   0.362805   0.637195         0.0003
       39           0.500000   0.365854   0.634146         0.0003
       40           0.500000   0.368902   0.631098         0.0003
       41           0.500000   0.371951   0.628049         0.0003
       42           0.500000   0.375000   0.625000         0.0003
       43           0.500000   0.378049   0.621951         0.0003
       44           0.500000   0.381098   0.618902         0.0003
       45           0.500000   0.384146   0.615854         0.0003
       46           0.500000   0.387195   0.612805         0.0003
       47           0.500000   0.390244   0.609756         0.0003
       48           0.500000   0.393293   0.606707         0.0003
       49           0.500000   0.396341   0.603659         0.0003
       50           0.500000   0.399390   0.600610         0.0003
       51           0.500000   0.402439   0.597561         0.0003
       52           0.500000   0.405488   0.594512         0.0003
       53           0.500000   0.408537   0.591463         0.0003
       54           0.500000   0.411585   0.588415         0.0003
       55           0.500000   0.414634   0.585366         0.0003
       56           0.500000   0.417683   0.582317         0.0003
       57           0.500000   0.420732   0.579268         0.0003
       58           0.500000   0.423780   0.576220         0.0003
       59           0.500000   0.426829   0.573171         0.0003
       60           0.500000   0.429878   0.570122         0.0003
       61           0.500000   0.432927   0.567073         0.0003
       62           0.500000   0.435976   0.564024         0.0003
       63           0.500000   0.439024   0.560976         0.0003
       64           0.500000   0.442073   0.557927         0.0003
       65           0.500000   0.445122   0.554878         0.0003
       66           0.500000   0.448171   0.551829         0.0003
       67           0.500000   0.451220   0.548780         0.0003
       68           0.500000   0.454268   0.545732         0.0003
       69           0.500000   0.457317   0.542683         0.0003
       70           0.500000   0.460366   0.539634         0.0003
       71           0.500000   0.463415   0.536585         0.0003
       72           0.500000   0.466463   0.533537         0.0003
       73           0.500000   0.469512   0.530488         0.0003
       74           0.500000   0.472561   0.527439         0.0003
       75           0.500000   0.475610   0.524390         0.0003
       76           0.500000   0.478659   0.521341         0.0003
       77           0.500000   0.481707   0.518293         0.0003
       78           0.500000   0.484756   0.515244         0.0003
       79           0.500000   0.487805   0.512195         0.0003
       80           0.500000   0.490854   0.509146         0.0003
       81           0.500000   0.493902   0.506098         0.0003
       82           0.500000   0.496951   0.503049         0.0003
       83           0.500000   0.500000   0.500000         0.0003
       84           0.498998   0.498998   0.498998         0.0003
       85           0.497996   0.497996   0.497996         0.0003
       86           0.496994   0.496994   0.496994         0.0003
       87           0.495992   0.495992   0.495992         0.0003
       88           0.494990   0.494990   0.494990         0.0003
       89           0.493988   0.493988   0.493988         0.0003
       90           0.492986   0.492986   0.492986         0.0003
       91           0.491984   0.491984   0.491984         0.0003
       92           0.490982   0.490982   0.490982         0.0003
       93           0.489980   0.489980   0.489980         0.0003
       94           0.488978   0.488978   0.488978         0.0003
       95           0.487976   0.487976   0.487976         0.0003
       96           0.486974   0.486974   0.486974         0.0003
       97           0.485972   0.485972   0.485972         0.0003
       98           0.484970   0.484970   0.484970         0.0003
       99           0.483968   0.483968   0.483968         0.0003
      100           0.482966   0.482966   0.482966         0.0003
      101           0.481964   0.481964   0.481964         0.0003
      102           0.480962   0.480962   0.480962         0.0003
      103           0.479960   0.479960   0.479960         0.0003
      104           0.478958   0.478958   0.478958         0.0003
      105           0.477956   0.477956   0.477956         0.0003
      106           0.476954   0.476954   0.476954         0.0003
      107           0.475952   0.475952   0.475952         0.0003
      108           0.474950   0.474950   0.474950         0.0003
      109           0.473948   0.473948   0.473948         0.0003
      110           0.472946   0.472946   0.472946         0.0003
      111           0.471944   0.471944   0.471944         0.0003
      112           0.470942   0.470942   0.470942         0.0003
      113           0.469940   0.469940   0.469940         0.0003
      114           0.468938   0.468938   0.468938         0.0003
      115           0.467936   0.467936   0.467936         0.0003
      116           0.466934   0.466934   0.466934         0.0003
      117           0.465932   0.465932   0.465932         0.0003
      118           0.464930   0.464930   0.464930         0.0003
      119           0.463928   0.463928   0.463928         0.0003
      120           0.462926   0.462926   0.462926         0.0003
      121           0.461924   0.461924   0.461924         0.0003
      122           0.460922   0.460922   0.460922         0.0003
      123           0.459920   0.459920   0.459920         0.0003
      124           0.458918   0.458918   0.458918         0.0003
      125           0.457916   0.457916   0.457916         0.0003
      126           0.456914   0.456914   0.456914         0.0003
      127           0.455912   0.455912   0.455912         0.0003
      128           0.454910   0.454910   0.454910         0.0003
      129           0.453908   0.453908   0.453908         0.0003
      130           0.452906   0.452906   0.452906         0.0003
      131           0.451904   0.451904   0.451904         0.0003
      132           0.450902   0.450902   0.450902         0.0003
      133           0.449900   0.449900   0.449900         0.0003
      134           0.448898   0.448898   0.448898         0.0003
      135           0.447896   0.447896   0.447896         0.0003
      136           0.446894   0.446894   0.446894         0.0003
      137           0.445892   0.445892   0.445892         0.0003
      138           0.444890   0.444890   0.444890         0.0003
      139           0.443888   0.443888   0.443888         0.0003
      140           0.442886   0.442886   0.442886         0.0003
      141           0.441884   0.441884   0.441884         0.0003
      142           0.440882   0.440882   0.440882         0.0003
      143           0.439880   0.439880   0.439880         0.0003
      144           0.438878   0.438878   0.438878         0.0003
      145           0.437876   0.437876   0.437876         0.0003
      146           0.436874   0.436874   0.436874         0.0003
      147           0.435872   0.435872   0.435872         0.0003
      148           0.434870   0.434870   0.434870         0.0003
      149           0.433868   0.433868   0.433868         0.0003
      150           0.432866   0.432866   0.432866         0.0003
      151           0.431864   0.431864   0.431864         0.0003
      152           0.430862   0.430862   0.430862         0.0003
      153           0.429860   0.429860   0.429860         0.0003
      154           0.428858   0.428858   0.428858         0.0003
      155           0.427856   0.427856   0.427856         0.0003
      156           0.426854   0.426854   0.426854         0.0003
      157           0.425852   0.425852   0.425852         0.0003
      158           0.424850   0.424850   0.424850         0.0003
      159           0.423848   0.423848   0.423848         0.0003
      160           0.422846   0.422846   0.422846         0.0003
      161           0.421844   0.421844   0.421844         0.0003
      162           0.420842   0.420842   0.420842         0.0003
      163           0.419840   0.419840   0.419840         0.0003
      164           0.418838   0.418838   0.418838         0.0003
      165           0.417836   0.417836   0.417836         0.0003
      166           0.416834   0.416834   0.416834         0.0003
      167           0.415832   0.415832   0.415832         0.0003
      168           0.414830   0.414830   0.414830         0.0003
      169           0.413828   0.413828   0.413828         0.0003
      170           0.412826   0.412826   0.412826         0.0003
      171           0.411824   0.411824   0.411824         0.0003
      172           0.410822   0.410822   0.410822         0.0003
      173           0.409820   0.409820   0.409820         0.0003
      174           0.408818   0.408818   0.408818         0.0003
      175           0.407816   0.407816   0.407816         0.0003
      176           0.406814   0.406814   0.406814         0.0003
      177           0.405812   0.405812   0.405812         0.0003
      178           0.404810   0.404810   0.404810         0.0003
      179           0.403808   0.403808   0.403808         0.0003
      180           0.402806   0.402806   0.402806         0.0003
      181           0.401804   0.401804   0.401804         0.0003
      182           0.400802   0.400802   0.400802         0.0003
      183           0.399800   0.399800   0.399800         0.0003
      184           0.398798   0.398798   0.398798         0.0003
      185           0.397796   0.397796   0.397796         0.0003
      186           0.396794   0.396794   0.396794         0.0003
      187           0.395792   0.395792   0.395792         0.0003
      188           0.394790   0.394790   0.394790         0.0003
      189           0.393788   0.393788   0.393788         0.0003
      190           0.392786   0.392786   0.392786         0.0003
      191           0.391784   0.391784   0.391784         0.0003
      192           0.390782   0.390782   0.390782         0.0003
      193           0.389780   0.389780   0.389780         0.0003
      194           0.388778   0.388778   0.388778         0.0003
      195           0.387776   0.387776   0.387776         0.0003
      196           0.386774   0.386774   0.386774         0.0003
      197           0.385772   0.385772   0.385772         0.0003
      198           0.384770   0.384770   0.384770         0.0003
      199           0.383768   0.383768   0.383768         0.0003
      200           0.382766   0.382766   0.382766         0.0003
      201           0.381764   0.381764   0.381764         0.0003
      202           0.380762   0.380762   0.380762         0.0003
      203           0.379760   0.379760   0.379760         0.0003
      204           0.378758   0.378758   0.378758         0.0003
      205           0.377756   0.377756   0.377756         0.0003
      206           0.376754   0.376754   0.376754         0.0003
      207           0.375752   0.375752   0.375752         0.0003
      208           0.374749   0.374749   0.374749         0.0003
      209           0.373747   0.373747   0.373747         0.0003
      210           0.372745   0.372745   0.372745         0.0003
      211           0.371743   0.371743   0.371743         0.0003
      212           0.370741   0.370741   0.370741         0.0003
      213           0.369739   0.369739   0.369739         0.0003
      214           0.368737   0.368737   0.368737         0.0003
      215           0.367735   0.367735   0.367735         0.0003
      216           0.366733   0.366733   0.366733         0.0003
      217           0.365731   0.365731   0.365731         0.0003
      218           0.364729   0.364729   0.364729         0.0003
      219           0.363727   0.363727   0.363727         0.0003
      220           0.362725   0.362725   0.362725         0.0003
      221           0.361723   0.361723   0.361723         0.0003
      222           0.360721   0.360721   0.360721         0.0003
      223           0.359719   0.359719   0.359719         0.0003
      224           0.358717   0.358717   0.358717         0.0003
      225           0.357715   0.357715   0.357715         0.0003
      226           0.356713   0.356713   0.356713         0.0003
      227           0.355711   0.355711   0.355711         0.0003
      228           0.354709   0.354709   0.354709         0.0003
      229           0.353707   0.353707   0.353707         0.0003
      230           0.352705   0.352705   0.352705         0.0003
      231           0.351703   0.351703   0.351703         0.0003
      232           0.350701   0.350701   0.350701         0.0003
      233           0.349699   0.349699   0.349699         0.0003
      234           0.348697   0.348697   0.348697         0.0003
      235           0.347695   0.347695   0.347695         0.0003
      236           0.346693   0.346693   0.346693         0.0003
      237           0.345691   0.345691   0.345691         0.0003
      238           0.344689   0.344689   0.344689         0.0003
      239           0.343687   0.343687   0.343687         0.0003
      240           0.342685   0.342685   0.342685         0.0003
      241           0.341683   0.341683   0.341683         0.0003
      242           0.340681   0.340681   0.340681         0.0003
      243           0.339679   0.339679   0.339679         0.0003
      244           0.338677   0.338677   0.338677         0.0003
      245           0.337675   0.337675   0.337675         0.0003
      246           0.336673   0.336673   0.336673         0.0003
      247           0.335671   0.335671   0.335671         0.0003
      248           0.334669   0.334669   0.334669         0.0003
      249           0.333667   0.333667   0.333667         0.0003
      250           0.332665   0.332665   0.332665         0.0003
      251           0.331663   0.331663   0.331663         0.0003
      252           0.330661   0.330661   0.330661         0.0003
      253           0.329659   0.329659   0.329659         0.0003
      254           0.328657   0.328657   0.328657         0.0003
      255           0.327655   0.327655   0.327655         0.0003
      256           0.326653   0.326653   0.326653         0.0003
      257           0.325651   0.325651   0.325651         0.0003
      258           0.324649   0.324649   0.324649         0.0003
      259           0.323647   0.323647   0.323647         0.0003
      260           0.322645   0.322645   0.322645         0.0003
      261           0.321643   0.321643   0.321643         0.0003
      262           0.320641   0.320641   0.320641         0.0003
      263           0.319639   0.319639   0.319639         0.0003
      264           0.318637   0.318637   0.318637         0.0003
      265           0.317635   0.317635   0.317635         0.0003
      266           0.316633   0.316633   0.316633         0.0003
      267           0.315631   0.315631   0.315631         0.0003
      268           0.314629   0.314629   0.314629         0.0003
      269           0.313627   0.313627   0.313627         0.0003
      270           0.312625   0.312625   0.312625         0.0003
      271           0.311623   0.311623   0.311623         0.0003
      272           0.310621   0.310621   0.310621         0.0003
      273           0.309619   0.309619   0.309619         0.0003
      274           0.308617   0.308617   0.308617         0.0003
      275           0.307615   0.307615   0.307615         0.0003
      276           0.306613   0.306613   0.306613         0.0003
      277           0.305611   0.305611   0.305611         0.0003
      278           0.304609   0.304609   0.304609         0.0003
      279           0.303607   0.303607   0.303607         0.0003
      280           0.302605   0.302605   0.302605         0.0003
      281           0.301603   0.301603   0.301603         0.0003
      282           0.300601   0.300601   0.300601         0.0003
      283           0.299599   0.299599   0.299599         0.0003
      284           0.298597   0.298597   0.298597         0.0003
      285           0.297595   0.297595   0.297595         0.0003
      286           0.296593   0.296593   0.296593         0.0003
      287           0.295591   0.295591   0.295591         0.0003
      288           0.294589   0.294589   0.294589         0.0003
      289           0.293587   0.293587   0.293587         0.0003
      290           0.292585   0.292585   0.292585         0.0003
      291           0.291583   0.291583   0.291583         0.0003
      292           0.290581   0.290581   0.290581         0.0003
      293           0.289579   0.289579   0.289579         0.0003
      294           0.288577   0.288577   0.288577         0.0003
      295           0.287575   0.287575   0.287575         0.0003
      296           0.286573   0.286573   0.286573         0.0003
      297           0.285571   0.285571   0.285571         0.0003
      298           0.284569   0.284569   0.284569         0.0003
      299           0.283567   0.283567   0.283567         0.0003
      300           0.282565   0.282565   0.282565         0.0003
      301           0.281563   0.281563   0.281563         0.0003
      302           0.280561   0.280561   0.280561         0.0003
      303           0.279559   0.279559   0.279559         0.0003
      304           0.278557   0.278557   0.278557         0.0003
      305           0.277555   0.277555   0.277555         0.0003
      306           0.276553   0.276553   0.276553         0.0003
      307           0.275551   0.275551   0.275551         0.0003
      308           0.274549   0.274549   0.274549         0.0003
      309           0.273547   0.273547   0.273547         0.0003
      310           0.272545   0.272545   0.272545         0.0003
      311           0.271543   0.271543   0.271543         0.0003
      312           0.270541   0.270541   0.270541         0.0003
      313           0.269539   0.269539   0.269539         0.0003
      314           0.268537   0.268537   0.268537         0.0003
      315           0.267535   0.267535   0.267535         0.0003
      316           0.266533   0.266533   0.266533         0.0003
      317           0.265531   0.265531   0.265531         0.0003
      318           0.264529   0.264529   0.264529         0.0003
      319           0.263527   0.263527   0.263527         0.0003
      320           0.262525   0.262525   0.262525         0.0003
      321           0.261523   0.261523   0.261523         0.0003
      322           0.260521   0.260521   0.260521         0.0003
      323           0.259519   0.259519   0.259519         0.0003
      324           0.258517   0.258517   0.258517         0.0003
      325           0.257515   0.257515   0.257515         0.0003
      326           0.256513   0.256513   0.256513         0.0003
      327           0.255511   0.255511   0.255511         0.0003
      328           0.254509   0.254509   0.254509         0.0003
      329           0.253507   0.253507   0.253507         0.0003
      330           0.252505   0.252505   0.252505         0.0003
      331           0.251503   0.251503   0.251503         0.0003
      332           0.250501   0.250501   0.250501         0.0003
      333           0.249499   0.249499   0.249499         0.0003
      334           0.248497   0.248497   0.248497         0.0003
      335           0.247495   0.247495   0.247495         0.0003
      336           0.246493   0.246493   0.246493         0.0003
      337           0.245491   0.245491   0.245491         0.0003
      338           0.244489   0.244489   0.244489         0.0003
      339           0.243487   0.243487   0.243487         0.0003
      340           0.242485   0.242485   0.242485         0.0003
      341           0.241483   0.241483   0.241483         0.0003
      342           0.240481   0.240481   0.240481         0.0003
      343           0.239479   0.239479   0.239479         0.0003
      344           0.238477   0.238477   0.238477         0.0003
      345           0.237475   0.237475   0.237475         0.0003
      346           0.236473   0.236473   0.236473         0.0003
      347           0.235471   0.235471   0.235471         0.0003
      348           0.234469   0.234469   0.234469         0.0003
      349           0.233467   0.233467   0.233467         0.0003
      350           0.232465   0.232465   0.232465         0.0003
      351           0.231463   0.231463   0.231463         0.0003
      352           0.230461   0.230461   0.230461         0.0003
      353           0.229459   0.229459   0.229459         0.0003
      354           0.228457   0.228457   0.228457         0.0003
      355           0.227455   0.227455   0.227455         0.0003
      356           0.226453   0.226453   0.226453         0.0003
      357           0.225451   0.225451   0.225451         0.0003
      358           0.224449   0.224449   0.224449         0.0003
      359           0.223447   0.223447   0.223447         0.0003
      360           0.222445   0.222445   0.222445         0.0003
      361           0.221443   0.221443   0.221443         0.0003
      362           0.220441   0.220441   0.220441         0.0003
      363           0.219439   0.219439   0.219439         0.0003
      364           0.218437   0.218437   0.218437         0.0003
      365           0.217435   0.217435   0.217435         0.0003
      366           0.216433   0.216433   0.216433         0.0003
      367           0.215431   0.215431   0.215431         0.0003
      368           0.214429   0.214429   0.214429         0.0003
      369           0.213427   0.213427   0.213427         0.0003
      370           0.212425   0.212425   0.212425         0.0003
      371           0.211423   0.211423   0.211423         0.0003
      372           0.210421   0.210421   0.210421         0.0003
      373           0.209419   0.209419   0.209419         0.0003
      374           0.208417   0.208417   0.208417         0.0003
      375           0.207415   0.207415   0.207415         0.0003
      376           0.206413   0.206413   0.206413         0.0003
      377           0.205411   0.205411   0.205411         0.0003
      378           0.204409   0.204409   0.204409         0.0003
      379           0.203407   0.203407   0.203407         0.0003
      380           0.202405   0.202405   0.202405         0.0003
      381           0.201403   0.201403   0.201403         0.0003
      382           0.200401   0.200401   0.200401         0.0003
      383           0.199399   0.199399   0.199399         0.0003
      384           0.198397   0.198397   0.198397         0.0003
      385           0.197395   0.197395   0.197395         0.0003
      386           0.196393   0.196393   0.196393         0.0003
      387           0.195391   0.195391   0.195391         0.0003
      388           0.194389   0.194389   0.194389         0.0003
      389           0.193387   0.193387   0.193387         0.0003
      390           0.192385   0.192385   0.192385         0.0003
      391           0.191383   0.191383   0.191383         0.0003
      392           0.190381   0.190381   0.190381         0.0003
      393           0.189379   0.189379   0.189379         0.0003
      394           0.188377   0.188377   0.188377         0.0003
      395           0.187375   0.187375   0.187375         0.0003
      396           0.186373   0.186373   0.186373         0.0003
      397           0.185371   0.185371   0.185371         0.0003
      398           0.184369   0.184369   0.184369         0.0003
      399           0.183367   0.183367   0.183367         0.0003
      400           0.182365   0.182365   0.182365         0.0003
      401           0.181363   0.181363   0.181363         0.0003
      402           0.180361   0.180361   0.180361         0.0003
      403           0.179359   0.179359   0.179359         0.0003
      404           0.178357   0.178357   0.178357         0.0003
      405           0.177355   0.177355   0.177355         0.0003
      406           0.176353   0.176353   0.176353         0.0003
      407           0.175351   0.175351   0.175351         0.0003
      408           0.174349   0.174349   0.174349         0.0003
      409           0.173347   0.173347   0.173347         0.0003
      410           0.172345   0.172345   0.172345         0.0003
      411           0.171343   0.171343   0.171343         0.0003
      412           0.170341   0.170341   0.170341         0.0003
      413           0.169339   0.169339   0.169339         0.0003
      414           0.168337   0.168337   0.168337         0.0003
      415           0.167335   0.167335   0.167335         0.0003
      416           0.166333   0.166333   0.166333         0.0003
      417           0.165331   0.165331   0.165331         0.0003
      418           0.164329   0.164329   0.164329         0.0003
      419           0.163327   0.163327   0.163327         0.0003
      420           0.162325   0.162325   0.162325         0.0003
      421           0.161323   0.161323   0.161323         0.0003
      422           0.160321   0.160321   0.160321         0.0003
      423           0.159319   0.159319   0.159319         0.0003
      424           0.158317   0.158317   0.158317         0.0003
      425           0.157315   0.157315   0.157315         0.0003
      426           0.156313   0.156313   0.156313         0.0003
      427           0.155311   0.155311   0.155311         0.0003
      428           0.154309   0.154309   0.154309         0.0003
      429           0.153307   0.153307   0.153307         0.0003
      430           0.152305   0.152305   0.152305         0.0003
      431           0.151303   0.151303   0.151303         0.0003
      432           0.150301   0.150301   0.150301         0.0003
      433           0.149299   0.149299   0.149299         0.0003
      434           0.148297   0.148297   0.148297         0.0003
      435           0.147295   0.147295   0.147295         0.0003
      436           0.146293   0.146293   0.146293         0.0003
      437           0.145291   0.145291   0.145291         0.0003
      438           0.144289   0.144289   0.144289         0.0003
      439           0.143287   0.143287   0.143287         0.0003
      440           0.142285   0.142285   0.142285         0.0003
      441           0.141283   0.141283   0.141283         0.0003
      442           0.140281   0.140281   0.140281         0.0003
      443           0.139279   0.139279   0.139279         0.0003
      444           0.138277   0.138277   0.138277         0.0003
      445           0.137275   0.137275   0.137275         0.0003
      446           0.136273   0.136273   0.136273         0.0003
      447           0.135271   0.135271   0.135271         0.0003
      448           0.134269   0.134269   0.134269         0.0003
      449           0.133267   0.133267   0.133267         0.0003
      450           0.132265   0.132265   0.132265         0.0003
      451           0.131263   0.131263   0.131263         0.0003
      452           0.130261   0.130261   0.130261         0.0003
      453           0.129259   0.129259   0.129259         0.0003
      454           0.128257   0.128257   0.128257         0.0003
      455           0.127255   0.127255   0.127255         0.0003
      456           0.126253   0.126253   0.126253         0.0003
      457           0.125251   0.125251   0.125251         0.0003
      458           0.124248   0.124248   0.124248         0.0003
      459           0.123246   0.123246   0.123246         0.0003
      460           0.122244   0.122244   0.122244         0.0003
      461           0.121242   0.121242   0.121242         0.0003
      462           0.120240   0.120240   0.120240         0.0003
      463           0.119238   0.119238   0.119238         0.0003
      464           0.118236   0.118236   0.118236         0.0003
      465           0.117234   0.117234   0.117234         0.0003
      466           0.116232   0.116232   0.116232         0.0003
      467           0.115230   0.115230   0.115230         0.0003
      468           0.114228   0.114228   0.114228         0.0003
      469           0.113226   0.113226   0.113226         0.0003
      470           0.112224   0.112224   0.112224         0.0003
      471           0.111222   0.111222   0.111222         0.0003
      472           0.110220   0.110220   0.110220         0.0003
      473           0.109218   0.109218   0.109218         0.0003
      474           0.108216   0.108216   0.108216         0.0003
      475           0.107214   0.107214   0.107214         0.0003
      476           0.106212   0.106212   0.106212         0.0003
      477           0.105210   0.105210   0.105210         0.0003
      478           0.104208   0.104208   0.104208         0.0003
      479           0.103206   0.103206   0.103206         0.0003
      480           0.102204   0.102204   0.102204         0.0003
      481           0.101202   0.101202   0.101202         0.0003
      482           0.100200   0.100200   0.100200         0.0003
      483           0.099198   0.099198   0.099198         0.0003
      484           0.098196   0.098196   0.098196         0.0003
      485           0.097194   0.097194   0.097194         0.0003
      486           0.096192   0.096192   0.096192         0.0003
      487           0.095190   0.095190   0.095190         0.0003
      488           0.094188   0.094188   0.094188         0.0003
      489           0.093186   0.093186   0.093186         0.0003
      490           0.092184   0.092184   0.092184         0.0003
      491           0.091182   0.091182   0.091182         0.0003
      492           0.090180   0.090180   0.090180         0.0003
      493           0.089178   0.089178   0.089178         0.0003
      494           0.088176   0.088176   0.088176         0.0003
      495           0.087174   0.087174   0.087174         0.0003
      496           0.086172   0.086172   0.086172         0.0003
      497           0.085170   0.085170   0.085170         0.0003
      498           0.084168   0.084168   0.084168         0.0003
      499           0.083166   0.083166   0.083166         0.0003
      500           0.082164   0.082164   0.082164         0.0003
      501           0.081162   0.081162   0.081162         0.0003
      502           0.080160   0.080160   0.080160         0.0003
      503           0.079158   0.079158   0.079158         0.0003
      504           0.078156   0.078156   0.078156         0.0003
      505           0.077154   0.077154   0.077154         0.0003
      506           0.076152   0.076152   0.076152         0.0003
      507           0.075150   0.075150   0.075150         0.0003
      508           0.074148   0.074148   0.074148         0.0003
      509           0.073146   0.073146   0.073146         0.0003
      510           0.072144   0.072144   0.072144         0.0003
      511           0.071142   0.071142   0.071142         0.0003
      512           0.070140   0.070140   0.070140         0.0003
      513           0.069138   0.069138   0.069138         0.0003
      514           0.068136   0.068136   0.068136         0.0003
      515           0.067134   0.067134   0.067134         0.0003
      516           0.066132   0.066132   0.066132         0.0003
      517           0.065130   0.065130   0.065130         0.0003
      518           0.064128   0.064128   0.064128         0.0003
      519           0.063126   0.063126   0.063126         0.0003
      520           0.062124   0.062124   0.062124         0.0003
      521           0.061122   0.061122   0.061122         0.0003
      522           0.060120   0.060120   0.060120         0.0003
      523           0.059118   0.059118   0.059118         0.0003
      524           0.058116   0.058116   0.058116         0.0003
      525           0.057114   0.057114   0.057114         0.0003
      526           0.056112   0.056112   0.056112         0.0003
      527           0.055110   0.055110   0.055110         0.0003
      528           0.054108   0.054108   0.054108         0.0003
      529           0.053106   0.053106   0.053106         0.0003
      530           0.052104   0.052104   0.052104         0.0003
      531           0.051102   0.051102   0.051102         0.0003
      532           0.050100   0.050100   0.050100         0.0003
      533           0.049098   0.049098   0.049098         0.0003
      534           0.048096   0.048096   0.048096         0.0003
      535           0.047094   0.047094   0.047094         0.0003
      536           0.046092   0.046092   0.046092         0.0003
      537           0.045090   0.045090   0.045090         0.0003
      538           0.044088   0.044088   0.044088         0.0003
      539           0.043086   0.043086   0.043086         0.0003
      540           0.042084   0.042084   0.042084         0.0003
      541           0.041082   0.041082   0.041082         0.0003
      542           0.040080   0.040080   0.040080         0.0003
      543           0.039078   0.039078   0.039078         0.0003
      544           0.038076   0.038076   0.038076         0.0003
      545           0.037074   0.037074   0.037074         0.0003
      546           0.036072   0.036072   0.036072         0.0003
      547           0.035070   0.035070   0.035070         0.0003
      548           0.034068   0.034068   0.034068         0.0003
      549           0.033066   0.033066   0.033066         0.0003
      550           0.032064   0.032064   0.032064         0.0003
      551           0.031062   0.031062   0.031062         0.0003
      552           0.030060   0.030060   0.030060         0.0003
      553           0.029058   0.029058   0.029058         0.0003
      554           0.028056   0.028056   0.028056         0.0003
      555           0.027054   0.027054   0.027054         0.0003
      556           0.026052   0.026052   0.026052         0.0003
      557           0.025050   0.025050   0.025050         0.0003
      558           0.024048   0.024048   0.024048         0.0003
      559           0.023046   0.023046   0.023046         0.0003
      560           0.022044   0.022044   0.022044         0.0003
      561           0.021042   0.021042   0.021042         0.0003
      562           0.020040   0.020040   0.020040         0.0003
      563           0.019038   0.019038   0.019038         0.0003
      564           0.018036   0.018036   0.018036         0.0003
      565           0.017034   0.017034   0.017034         0.0003
      566           0.016032   0.016032   0.016032         0.0003
      567           0.015030   0.015030   0.015030         0.0003
      568           0.014028   0.014028   0.014028         0.0003
      569           0.013026   0.013026   0.013026         0.0003
      570           0.012024   0.012024   0.012024         0.0003
      571           0.011022   0.011022   0.011022         0.0003
      572           0.010020   0.010020   0.010020         0.0003
      573           0.009018   0.009018   0.009018         0.0003
      574           0.008016   0.008016   0.008016         0.0003
      575           0.007014   0.007014   0.007014         0.0003
      576           0.006012   0.006012   0.006012         0.0003
      577           0.005010   0.005010   0.005010         0.0003
      578           0.004008   0.004008   0.004008         0.0003
      579           0.003006   0.003006   0.003006         0.0003
      580           0.002004   0.002004   0.002004         0.0003
      581           0.001002   0.001002   0.001002         0.0003
      582          -0.000000  -0.000000  -0.000000         0.0003
      583           0.001506  -0.000000   0.001506         0.0003
      584           0.003012  -0.000000   0.003012         0.0003
      585           0.004518  -0.000000   0.004518         0.0003
      586           0.006024  -0.000000   0.006024         0.0003
      587           0.007530  -0.000000   0.007530         0.0003
      588           0.009036  -0.000000   0.009036         0.0003
      589           0.010542  -0.000000   0.010542         0.0003
      590           0.012048  -0.000000   0.012048         0.0003
      591           0.013554  -0.000000   0.013554         0.0003
      592           0.015060  -0.000000   0.015060         0.0003
      593           0.016566  -0.000000   0.016566         0.0003
      594           0.018072  -0.000000   0.018072         0.0003
      595           0.019578  -0.000000   0.019578         0.0003
      596           0.021084  -0.000000   0.021084         0.0003
      597           0.022590  -0.000000   0.022590         0.0003
      598           0.024096  -0.000000   0.024096         0.0003
      599           0.025602  -0.000000   0.025602         0.0003
      600           0.027108  -0.000000   0.027108         0.0003
      601           0.028614  -0.000000   0.028614         0.0003
      602           0.030120  -0.000000   0.030120         0.0003
      603           0.031627  -0.000000   0.031627         0.0003
      604           0.033133  -0.000000   0.033133         0.0003
      605           0.034639  -0.000000   0.034639         0.0003
      606           0.036145  -0.000000   0.036145         0.0003
      607           0.037651  -0.000000   0.037651         0.0003
      608           0.039157  -0.000000   0.039157         0.0003
      609           0.040663  -0.000000   0.040663         0.0003
      610           0.042169  -0.000000   0.042169         0.0003
      611           0.043675  -0.000000   0.043675         0.0003
      612           0.045181  -0.000000   0.045181         0.0003
      613           0.046687  -0.000000   0.046687         0.0003
      614           0.048193  -0.000000   0.048193         0.0003
      615           0.049699  -0.000000   0.049699         0.0003
      616           0.051205  -0.000000   0.051205         0.0003
      617           0.052711  -0.000000   0.052711         0.0003
      618           0.054217  -0.000000   0.054217         0.0003
      619           0.055723  -0.000000   0.055723         0.0003
      620           0.057229  -0.000000   0.057229         0.0003
      621           0.058735  -0.000000   0.058735         0.0003
      622           0.060241  -0.000000   0.060241         0.0003
      623           0.061747  -0.000000   0.061747         0.0003
      624           0.063253  -0.000000   0.063253         0.0003
      625           0.064759  -0.000000   0.064759         0.0003
      626           0.066265  -0.000000   0.066265         0.0003
      627           0.067771  -0.000000   0.067771         0.0003
      628           0.069277  -0.000000   0.069277         0.0003
      629           0.070783  -0.000000   0.070783         0.0003
      630           0.072289  -0.000000   0.072289         0.0003
      631           0.073795  -0.000000   0.073795         0.0003
      632           0.075301  -0.000000   0.075301         0.0003
      633           0.076807  -0.000000   0.076807         0.0003
      634           0.078313  -0.000000   0.078313         0.0003
      635           0.079819  -0.000000   0.079819         0.0003
      636           0.081325  -0.000000   0.081325         0.0003
      637           0.082831  -0.000000   0.082831         0.0003
      638           0.084337  -0.000000   0.084337         0.0003
      639           0.085843  -0.000000   0.085843         0.0003
      640           0.087349  -0.000000   0.087349         0.0003
      641           0.088855  -0.000000   0.088855         0.0003
      642           0.090361  -0.000000   0.090361         0.0003
      643           0.091867  -0.000000   0.091867         0.0003
      644           0.093373  -0.000000   0.093373         0.0003
      645           0.094880  -0.000000   0.094880         0.0003
      646           0.096386  -0.000000   0.096386         0.0003
      647           0.097892  -0.000000   0.097892         0.0003
      648           0.099398  -0.000000   0.099398         0.0003
      649           0.100904  -0.000000   0.100904         0.0003
      650           0.102410  -0.000000   0.102410         0.0003
      651           0.103916  -0.000000   0.103916         0.0003
      652           0.105422  -0.000000   0.105422         0.0003
      653           0.106928  -0.000000   0.106928         0.0003
      654           0.108434  -0.000000   0.108434         0.0003
      655           0.109940  -0.000000   0.109940         0.0003
      656           0.111446  -0.000000   0.111446         0.0003
      657           0.112952  -0.000000   0.112952         0.0003
      658           0.114458  -0.000000   0.114458         0.0003
      659           0.115964  -0.000000   0.115964         0.0003
      660           0.117470  -0.000000   0.117470         0.0003
      661           0.118976  -0.000000   0.118976         0.0003
      662           0.120482  -0.000000   0.120482         0.0003
      663           0.121988  -0.000000   0.121988         0.0003
      664           0.123494  -0.000000   0.123494         0.0003
      665           0.125000  -0.000000   0.125000         0.0003
      666           0.126506  -0.000000   0.126506         0.0003
      667           0.128012  -0.000000   0.128012         0.0003
      668           0.129518  -0.000000   0.129518         0.0003
      669           0.131024  -0.000000   0.131024         0.0003
      670           0.132530  -0.000000   0.132530         0.0003
      671           0.134036  -0.000000   0.134036         0.0003
      672           0.135542  -0.000000   0.135542         0.0003
      673           0.137048  -0.000000   0.137048         0.0003
      674           0.138554  -0.000000   0.138554         0.0003
      675           0.140060  -0.000000   0.140060         0.0003
      676           0.141566  -0.000000   0.141566         0.0003
      677           0.143072  -0.000000   0.143072         0.0003
      678           0.144578  -0.000000   0.144578         0.0003
      679           0.146084  -0.000000   0.146084         0.0003
      680           0.147590  -0.000000   0.147590         0.0003
      681           0.149096  -0.000000   0.149096         0.0003
      682           0.150602  -0.000000   0.150602         0.0003
      683           0.152108  -0.000000   0.152108         0.0003
      684           0.153614  -0.000000   0.153614         0.0003
      685           0.155120  -0.000000   0.155120         0.0003
      686           0.156627  -0.000000   0.156627         0.0003
      687           0.158133  -0.000000   0.158133         0.0003
      688           0.159639  -0.000000   0.159639         0.0003
      689           0.161145  -0.000000   0.161145         0.0003
      690           0.162651  -0.000000   0.162651         0.0003
      691           0.164157  -0.000000   0.164157         0.0003
      692           0.165663  -0.000000   0.165663         0.0003
      693           0.167169  -0.000000   0.167169         0.0003
      694           0.168675  -0.000000   0.168675         0.0003
      695           0.170181  -0.000000   0.170181         0.0003
      696           0.171687  -0.000000   0.171687         0.0003
      697           0.173193  -0.000000   0.173193         0.0003
      698           0.174699  -0.000000   0.174699         0.0003
      699           0.176205  -0.000000   0.176205         0.0003
      700           0.177711  -0.000000   0.177711         0.0003
      701           0.179217  -0.000000   0.179217         0.0003
      702           0.180723  -0.000000   0.180723         0.0003
      703           0.182229  -0.000000   0.182229         0.0003
      704           0.183735  -0.000000   0.183735         0.0003
      705           0.185241  -0.000000   0.185241         0.0003
      706           0.186747  -0.000000   0.186747         0.0003
      707           0.188253  -0.000000   0.188253         0.0003
      708           0.189759  -0.000000   0.189759         0.0003
      709           0.191265  -0.000000   0.191265         0.0003
      710           0.192771  -0.000000   0.192771         0.0003
      711           0.194277  -0.000000   0.194277         0.0003
      712           0.195783  -0.000000   0.195783         0.0003
      713           0.197289  -0.000000   0.197289         0.0003
      714           0.198795  -0.000000   0.198795         0.0003
      715           0.200301  -0.000000   0.200301         0.0003
      716           0.201807  -0.000000   0.201807         0.0003
      717           0.203313  -0.000000   0.203313         0.0003
      718           0.204819  -0.000000   0.204819         0.0003
      719           0.206325  -0.000000   0.206325         0.0003
      720           0.207831  -0.000000   0.207831         0.0003
      721           0.209337  -0.000000   0.209337         0.0003
      722           0.210843  -0.000000   0.210843         0.0003
      723           0.212349  -0.000000   0.212349         0.0003
      724           0.213855  -0.000000   0.213855         0.0003
      725           0.215361  -0.000000   0.215361         0.0003
      726           0.216867  -0.000000   0.216867         0.0003
      727           0.218373  -0.000000   0.218373         0.0003
      728           0.219880  -0.000000   0.219880         0.0003
      729           0.221386  -0.000000   0.221386         0.0003
      730           0.222892  -0.000000   0.222892         0.0003
      731           0.224398  -0.000000   0.224398         0.0003
      732           0.225904  -0.000000   0.225904         0.0003
      733           0.227410  -0.000000   0.227410         0.0003
      734           0.228916  -0.000000   0.228916         0.0003
      735           0.230422  -0.000000   0.230422         0.0003
      736           0.231928  -0.000000   0.231928         0.0003
      737           0.233434  -0.000000   0.233434         0.0003
      738           0.234940  -0.000000   0.234940         0.0003
      739           0.236446  -0.000000   0.236446         0.0003
      740           0.237952  -0.000000   0.237952         0.0003
      741           0.239458  -0.000000   0.239458         0.0003
      742           0.240964  -0.000000   0.240964         0.0003
      743           0.242470  -0.000000   0.242470         0.0003
      744           0.243976  -0.000000   0.243976         0.0003
      745           0.245482  -0.000000   0.245482         0.0003
      746           0.246988  -0.000000   0.246988         0.0003
      747           0.248494  -0.000000   0.248494         0.0003
      748           0.250000  -0.000000   0.250000         0.0003
      749           0.251506  -0.000000   0.251506         0.0003
      750           0.253012  -0.000000   0.253012         0.0003
      751           0.254518  -0.000000   0.254518         0.0003
      752           0.256024  -0.000000   0.256024         0.0003
      753           0.257530  -0.000000   0.257530         0.0003
      754           0.259036  -0.000000   0.259036         0.0003
      755           0.260542  -0.000000   0.260542         0.0003
      756           0.262048  -0.000000   0.262048         0.0003
      757           0.263554  -0.000000   0.263554         0.0003
      758           0.265060  -0.000000   0.265060         0.0003
      759           0.266566  -0.000000   0.266566         0.0003
      760           0.268072  -0.000000   0.268072         0.0003
      761           0.269578  -0.000000   0.269578         0.0003
      762           0.271084  -0.000000   0.271084         0.0003
      763           0.272590  -0.000000   0.272590         0.0003
      764           0.274096  -0.000000   0.274096         0.0003
      765           0.275602  -0.000000   0.275602         0.0003
      766           0.277108  -0.000000   0.277108         0.0003
      767           0.278614  -0.000000   0.278614         0.0003
      768           0.280120  -0.000000   0.280120         0.0003
      769           0.281627  -0.000000   0.281627         0.0003
      770           0.283133  -0.000000   0.283133         0.0003
      771           0.284639  -0.000000   0.284639         0.0003
      772           0.286145  -0.000000   0.286145         0.0003
      773           0.287651  -0.000000   0.287651         0.0003
      774           0.289157  -0.000000   0.289157         0.0003
      775           0.290663  -0.000000   0.290663         0.0003
      776           0.292169  -0.000000   0.292169         0.0003
      777           0.293675  -0.000000   0.293675         0.0003
      778           0.295181  -0.000000   0.295181         0.0003
      779           0.296687  -0.000000   0.296687         0.0003
      780           0.298193  -0.000000   0.298193         0.0003
      781           0.299699  -0.000000   0.299699         0.0003
      782           0.301205  -0.000000   0.301205         0.0003
      783           0.302711  -0.000000   0.302711         0.0003
      784           0.304217  -0.000000   0.304217         0.0003
      785           0.305723  -0.000000   0.305723         0.0003
      786           0.307229  -0.000000   0.307229         0.0003
      787           0.308735  -0.000000   0.308735         0.0003
      788           0.310241  -0.000000   0.310241         0.0003
      789           0.311747  -0.000000   0.311747         0.0003
      790           0.313253  -0.000000   0.313253         0.0003
      791           0.314759  -0.000000   0.314759         0.0003
      792           0.316265  -0.000000   0.316265         0.0003
      793           0.317771  -0.000000   0.317771         0.0003
      794           0.319277  -0.000000   0.319277         0.0003
      795           0.320783  -0.000000   0.320783         0.0003
      796           0.322289  -0.000000   0.322289         0.0003
      797           0.323795  -0.000000   0.323795         0.0003
      798           0.325301  -0.000000   0.325301         0.0003
      799           0.326807  -0.000000   0.326807         0.0003
      800           0.328313  -0.000000   0.328313         0.0003
      801           0.329819  -0.000000   0.329819         0.0003
      802           0.331325  -0.000000   0.331325         0.0003
      803           0.332831  -0.000000   0.332831         0.0003
      804           0.334337  -0.000000   0.334337         0.0003
      805           0.335843  -0.000000   0.335843         0.0003
      806           0.337349  -0.000000   0.337349         0.0003
      807           0.338855  -0.000000   0.338855         0.0003
      808           0.340361  -0.000000   0.340361         0.0003
      809           0.341867  -0.000000   0.341867         0.0003
      810           0.343373  -0.000000   0.343373         0.0003
      811           0.344880  -0.000000   0.344880         0.0003
      812           0.346386  -0.000000   0.346386         0.0003
      813           0.347892  -0.000000   0.347892         0.0003
      814           0.349398  -0.000000   0.349398         0.0003
      815           0.350904  -0.000000   0.350904         0.0003
      816           0.352410  -0.000000   0.352410         0.0003
      817           0.353916  -0.000000   0.353916         0.0003
      818           0.355422  -0.000000   0.355422         0.0003
      819           0.356928  -0.000000   0.356928         0.0003
      820           0.358434  -0.000000   0.358434         0.0003
      821           0.359940  -0.000000   0.359940         0.0003
      822           0.361446  -0.000000   0.361446         0.0003
      823           0.362952  -0.000000   0.362952         0.0003
      824           0.364458  -0.000000   0.364458         0.0003
      825           0.365964  -0.000000   0.365964         0.0003
      826           0.367470  -0.000000   0.367470         0.0003
      827           0.368976  -0.000000   0.368976         0.0003
      828           0.370482  -0.000000   0.370482         0.0003
      829           0.371988  -0.000000   0.371988         0.0003
      830           0.373494  -0.000000   0.373494         0.0003
      831           0.375000  -0.000000   0.375000         0.0003
      832           0.376506  -0.000000   0.376506         0.0003
      833           0.378012  -0.000000   0.378012         0.0003
      834           0.379518  -0.000000   0.379518         0.0003
      835           0.381024  -0.000000   0.381024         0.0003
      836           0.382530  -0.000000   0.382530         0.0003
      837           0.384036  -0.000000   0.384036         0.0003
      838           0.385542  -0.000000   0.385542         0.0003
      839           0.387048  -0.000000   0.387048         0.0003
      840           0.388554  -0.000000   0.388554         0.0003
      841           0.390060  -0.000000   0.390060         0.0003
      842           0.391566  -0.000000   0.391566         0.0003
      843           0.393072  -0.000000   0.393072         0.0003
      844           0.394578  -0.000000   0.394578         0.0003
      845           0.396084  -0.000000   0.396084         0.0003
      846           0.397590  -0.000000   0.397590         0.0003
      847           0.399096  -0.000000   0.399096         0.0003
      848           0.400602  -0.000000   0.400602         0.0003
      849           0.402108  -0.000000   0.402108         0.0003
      850           0.403614  -0.000000   0.403614         0.0003
      851           0.405120  -0.000000   0.405120         0.0003
      852           0.406627  -0.000000   0.406627         0.0003
      853           0.408133  -0.000000   0.408133         0.0003
      854           0.409639  -0.000000   0.409639         0.0003
      855           0.411145  -0.000000   0.411145         0.0003
      856           0.412651  -0.000000   0.412651         0.0003
      857           0.414157  -0.000000   0.414157         0.0003
      858           0.415663  -0.000000   0.415663         0.0003
      859           0.417169  -0.000000   0.417169         0.0003
      860           0.418675  -0.000000   0.418675         0.0003
      861           0.420181  -0.000000   0.420181         0.0003
      862           0.421687  -0.000000   0.421687         0.0003
      863           0.423193  -0.000000   0.423193         0.0003
      864           0.424699  -0.000000   0.424699         0.0003
      865           0.426205  -0.000000   0.426205         0.0003
      866           0.427711  -0.000000   0.427711         0.0003
      867           0.429217  -0.000000   0.429217         0.0003
      868           0.430723  -0.000000   0.430723         0.0003
      869           0.432229  -0.000000   0.432229         0.0003
      870           0.433735  -0.000000   0.433735         0.0003
      871           0.435241  -0.000000   0.435241         0.0003
      872           0.436747  -0.000000   0.436747         0.0003
      873           0.438253  -0.000000   0.438253         0.0003
      874           0.439759  -0.000000   0.439759         0.0003
      875           0.441265  -0.000000   0.441265         0.0003
      876           0.442771  -0.000000   0.442771         0.0003
      877           0.444277  -0.000000   0.444277         0.0003
      878           0.445783  -0.000000   0.445783         0.0003
      879           0.447289  -0.000000   0.447289         0.0003
      880           0.448795  -0.000000   0.448795         0.0003
      881           0.450301  -0.000000   0.450301         0.0003
      882           0.451807  -0.000000   0.451807         0.0003
      883           0.453313  -0.000000   0.453313         0.0003
      884           0.454819  -0.000000   0.454819         0.0003
      885           0.456325  -0.000000   0.456325         0.0003
      886           0.457831  -0.000000   0.457831         0.0003
      887           0.459337  -0.000000   0.459337         0.0003
      888           0.460843  -0.000000   0.460843         0.0003
      889           0.462349  -0.000000   0.462349         0.0003
      890           0.463855  -0.000000   0.463855         0.0003
      891           0.465361  -0.000000   0.465361         0.0003
      892           0.466867  -0.000000   0.466867         0.0003
      893           0.468373  -0.000000   0.468373         0.0003
      894           0.469880  -0.000000   0.469880         0.0003
      895           0.471386  -0.000000   0.471386         0.0003
      896           0.472892  -0.000000   0.472892         0.0003
      897           0.474398  -0.000000   0.474398         0.0003
      898           0.475904  -0.000000   0.475904         0.0003
      899           0.477410  -0.000000   0.477410         0.0003
      900           0.478916  -0.000000   0.478916         0.0003
      901           0.480422  -0.000000   0.480422         0.0003
      902           0.481928  -0.000000   0.481928         0.0003
      903           0.483434  -0.000000   0.483434         0.0003
      904           0.484940  -0.000000   0.484940         0.0003
      905           0.486446  -0.000000   0.486446         0.0003
      906           0.487952  -0.000000   0.487952         0.0003
      907           0.489458  -0.000000   0.489458         0.0003
      908           0.490964  -0.000000   0.490964         0.0003
      909           0.492470  -0.000000   0.492470         0.0003
      910           0.493976  -0.000000   0.493976         0.0003
      911           0.495482  -0.000000   0.495482         0.0003
      912           0.496988  -0.000000   0.496988         0.0003
      913           0.498494  -0.000000   0.498494         0.0003
      914           0.500000  -0.000000   0.500000         0.0003
      915           0.500000   0.003049   0.503049         0.0003
      916           0.500000   0.006098   0.506098         0.0003
      917           0.500000   0.009146   0.509146         0.0003
      918           0.500000   0.012195   0.512195         0.0003
      919           0.500000   0.015244   0.515244         0.0003
      920           0.500000   0.018293   0.518293         0.0003
      921           0.500000   0.021341   0.521341         0.0003
      922           0.500000   0.024390   0.524390         0.0003
      923           0.500000   0.027439   0.527439         0.0003
      924           0.500000   0.030488   0.530488         0.0003
      925           0.500000   0.033537   0.533537         0.0003
      926           0.500000   0.036585   0.536585         0.0003
      927           0.500000   0.039634   0.539634         0.0003
      928           0.500000   0.042683   0.542683         0.0003
      929           0.500000   0.045732   0.545732         0.0003
      930           0.500000   0.048780   0.548780         0.0003
      931           0.500000   0.051829   0.551829         0.0003
      932           0.500000   0.054878   0.554878         0.0003
      933           0.500000   0.057927   0.557927         0.0003
      934           0.500000   0.060976   0.560976         0.0003
      935           0.500000   0.064024   0.564024         0.0003
      936           0.500000   0.067073   0.567073         0.0003
      937           0.500000   0.070122   0.570122         0.0003
      938           0.500000   0.073171   0.573171         0.0003
      939           0.500000   0.076220   0.576220         0.0003
      940           0.500000   0.079268   0.579268         0.0003
      941           0.500000   0.082317   0.582317         0.0003
      942           0.500000   0.085366   0.585366         0.0003
      943           0.500000   0.088415   0.588415         0.0003
      944           0.500000   0.091463   0.591463         0.0003
      945           0.500000   0.094512   0.594512         0.0003
      946           0.500000   0.097561   0.597561         0.0003
      947           0.500000   0.100610   0.600610         0.0003
      948           0.500000   0.103659   0.603659         0.0003
      949           0.500000   0.106707   0.606707         0.0003
      950           0.500000   0.109756   0.609756         0.0003
      951           0.500000   0.112805   0.612805         0.0003
      952           0.500000   0.115854   0.615854         0.0003
      953           0.500000   0.118902   0.618902         0.0003
      954           0.500000   0.121951   0.621951         0.0003
      955           0.500000   0.125000   0.625000         0.0003
      956           0.500000   0.128049   0.628049         0.0003
      957           0.500000   0.131098   0.631098         0.0003
      958           0.500000   0.134146   0.634146         0.0003
      959           0.500000   0.137195   0.637195         0.0003
      960           0.500000   0.140244   0.640244         0.0003
      961           0.500000   0.143293   0.643293         0.0003
      962           0.500000   0.146341   0.646341         0.0003
      963           0.500000   0.149390   0.649390         0.0003
      964           0.500000   0.152439   0.652439         0.0003
      965           0.500000   0.155488   0.655488         0.0003
      966           0.500000   0.158537   0.658537         0.0003
      967           0.500000   0.161585   0.661585         0.0003
      968           0.500000   0.164634   0.664634         0.0003
      969           0.500000   0.167683   0.667683         0.0003
      970           0.500000   0.170732   0.670732         0.0003
      971           0.500000   0.173780   0.673780         0.0003
      972           0.500000   0.176829   0.676829         0.0003
      973           0.500000   0.179878   0.679878         0.0003
      974           0.500000   0.182927   0.682927         0.0003
      975           0.500000   0.185976   0.685976         0.0003
      976           0.500000   0.189024   0.689024         0.0003
      977           0.500000   0.192073   0.692073         0.0003
      978           0.500000   0.195122   0.695122         0.0003
      979           0.500000   0.198171   0.698171         0.0003
      980           0.500000   0.201220   0.701220         0.0003
      981           0.500000   0.204268   0.704268         0.0003
      982           0.500000   0.207317   0.707317         0.0003
      983           0.500000   0.210366   0.710366         0.0003
      984           0.500000   0.213415   0.713415         0.0003
      985           0.500000   0.216463   0.716463         0.0003
      986           0.500000   0.219512   0.719512         0.0003
      987           0.500000   0.222561   0.722561         0.0003
      988           0.500000   0.225610   0.725610         0.0003
      989           0.500000   0.228659   0.728659         0.0003
      990           0.500000   0.231707   0.731707         0.0003
      991           0.500000   0.234756   0.734756         0.0003
      992           0.500000   0.237805   0.737805         0.0003
      993           0.500000   0.240854   0.740854         0.0003
      994           0.500000   0.243902   0.743902         0.0003
      995           0.500000   0.246951   0.746951         0.0003
      996           0.500000   0.250000   0.750000         0.0003
      997           0.031250   0.031250   0.031250         0.0003
      998           0.031250   0.031250   0.093750         0.0003
      999           0.031250   0.031250   0.156250         0.0003
     1000           0.031250   0.031250   0.218750         0.0003
     1001           0.031250   0.031250   0.281250         0.0003
     1002           0.031250   0.031250   0.343750         0.0003
     1003           0.031250   0.031250   0.406250         0.0003
     1004           0.031250   0.031250   0.468750         0.0003
     1005           0.031250   0.031250   0.531250         0.0003
     1006           0.031250   0.031250   0.593750         0.0003
     1007           0.031250   0.031250   0.656250         0.0003
     1008           0.031250   0.031250   0.718750         0.0003
     1009           0.031250   0.031250   0.781250         0.0003
     1010           0.031250   0.031250   0.843750         0.0003
     1011           0.031250   0.031250   0.906250         0.0003
     1012           0.031250   0.031250   0.968750         0.0003
     1013           0.031250   0.093750   0.031250         0.0003
     1014           0.031250   0.093750   0.093750         0.0003
     1015           0.031250   0.093750   0.156250         0.0003
     1016           0.031250   0.093750   0.218750         0.0003
     1017           0.031250   0.093750   0.281250         0.0003
     1018           0.031250   0.093750   0.343750         0.0003
     1019           0.031250   0.093750   0.406250         0.0003
     1020           0.031250   0.093750   0.468750         0.0003
     1021           0.031250   0.093750   0.531250         0.0003
     1022           0.031250   0.093750   0.593750         0.0003
     1023           0.031250   0.093750   0.656250         0.0003
     1024           0.031250   0.093750   0.718750         0.0003
     1025           0.031250   0.093750   0.781250         0.0003
     1026           0.031250   0.093750   0.843750         0.0003
     1027           0.031250   0.093750   0.906250         0.0003
     1028           0.031250   0.093750   0.968750         0.0003
     1029           0.031250   0.156250   0.031250         0.0003
     1030           0.031250   0.156250   0.093750         0.0003
     1031           0.031250   0.156250   0.156250         0.0003
     1032           0.031250   0.156250   0.218750         0.0003
     1033           0.031250   0.156250   0.281250         0.0003
     1034           0.031250   0.156250   0.343750         0.0003
     1035           0.031250   0.156250   0.406250         0.0003
     1036           0.031250   0.156250   0.468750         0.0003
     1037           0.031250   0.156250   0.531250         0.0003
     1038           0.031250   0.156250   0.593750         0.0003
     1039           0.031250   0.156250   0.656250         0.0003
     1040           0.031250   0.156250   0.718750         0.0003
     1041           0.031250   0.156250   0.781250         0.0003
     1042           0.031250   0.156250   0.843750         0.0003
     1043           0.031250   0.156250   0.906250         0.0003
     1044           0.031250   0.156250   0.968750         0.0003
     1045           0.031250   0.218750   0.031250         0.0003
     1046           0.031250   0.218750   0.093750         0.0003
     1047           0.031250   0.218750   0.156250         0.0003
     1048           0.031250   0.218750   0.218750         0.0003
     1049           0.031250   0.218750   0.281250         0.0003
     1050           0.031250   0.218750   0.343750         0.0003
     1051           0.031250   0.218750   0.406250         0.0003
     1052           0.031250   0.218750   0.468750         0.0003
     1053           0.031250   0.218750   0.531250         0.0003
     1054           0.031250   0.218750   0.593750         0.0003
     1055           0.031250   0.218750   0.656250         0.0003
     1056           0.031250   0.218750   0.718750         0.0003
     1057           0.031250   0.218750   0.781250         0.0003
     1058           0.031250   0.218750   0.843750         0.0003
     1059           0.031250   0.218750   0.906250         0.0003
     1060           0.031250   0.218750   0.968750         0.0003
     1061           0.031250   0.281250   0.031250         0.0003
     1062           0.031250   0.281250   0.093750         0.0003
     1063           0.031250   0.281250   0.156250         0.0003
     1064           0.031250   0.281250   0.218750         0.0003
     1065           0.031250   0.281250   0.281250         0.0003
     1066           0.031250   0.281250   0.343750         0.0003
     1067           0.031250   0.281250   0.406250         0.0003
     1068           0.031250   0.281250   0.468750         0.0003
     1069           0.031250   0.281250   0.531250         0.0003
     1070           0.031250   0.281250   0.593750         0.0003
     1071           0.031250   0.281250   0.656250         0.0003
     1072           0.031250   0.281250   0.718750         0.0003
     1073           0.031250   0.281250   0.781250         0.0003
     1074           0.031250   0.281250   0.843750         0.0003
     1075           0.031250   0.281250   0.906250         0.0003
     1076           0.031250   0.281250   0.968750         0.0003
     1077           0.031250   0.343750   0.031250         0.0003
     1078           0.031250   0.343750   0.093750         0.0003
     1079           0.031250   0.343750   0.156250         0.0003
     1080           0.031250   0.343750   0.218750         0.0003
     1081           0.031250   0.343750   0.281250         0.0003
     1082           0.031250   0.343750   0.343750         0.0003
     1083           0.031250   0.343750   0.406250         0.0003
     1084           0.031250   0.343750   0.468750         0.0003
     1085           0.031250   0.343750   0.531250         0.0003
     1086           0.031250   0.343750   0.593750         0.0003
     1087           0.031250   0.343750   0.656250         0.0003
     1088           0.031250   0.343750   0.718750         0.0003
     1089           0.031250   0.343750   0.781250         0.0003
     1090           0.031250   0.343750   0.843750         0.0003
     1091           0.031250   0.343750   0.906250         0.0003
     1092           0.031250   0.343750   0.968750         0.0003
     1093           0.031250   0.406250   0.031250         0.0003
     1094           0.031250   0.406250   0.093750         0.0003
     1095           0.031250   0.406250   0.156250         0.0003
     1096           0.031250   0.406250   0.218750         0.0003
     1097           0.031250   0.406250   0.281250         0.0003
     1098           0.031250   0.406250   0.343750         0.0003
     1099           0.031250   0.406250   0.406250         0.0003
     1100           0.031250   0.406250   0.468750         0.0003
     1101           0.031250   0.406250   0.531250         0.0003
     1102           0.031250   0.406250   0.593750         0.0003
     1103           0.031250   0.406250   0.656250         0.0003
     1104           0.031250   0.406250   0.718750         0.0003
     1105           0.031250   0.406250   0.781250         0.0003
     1106           0.031250   0.406250   0.843750         0.0003
     1107           0.031250   0.406250   0.906250         0.0003
     1108           0.031250   0.406250   0.968750         0.0003
     1109           0.031250   0.468750   0.031250         0.0003
     1110           0.031250   0.468750   0.093750         0.0003
     1111           0.031250   0.468750   0.156250         0.0003
     1112           0.031250   0.468750   0.218750         0.0003
     1113           0.031250   0.468750   0.281250         0.0003
     1114           0.031250   0.468750   0.343750         0.0003
     1115           0.031250   0.468750   0.406250         0.0003
     1116           0.031250   0.468750   0.468750         0.0003
     1117           0.031250   0.468750   0.531250         0.0003
     1118           0.031250   0.468750   0.593750         0.0003
     1119           0.031250   0.468750   0.656250         0.0003
     1120           0.031250   0.468750   0.718750         0.0003
     1121           0.031250   0.468750   0.781250         0.0003
     1122           0.031250   0.468750   0.843750         0.0003
     1123           0.031250   0.468750   0.906250         0.0003
     1124           0.031250   0.468750   0.968750         0.0003
     1125           0.031250   0.531250   0.031250         0.0003
     1126           0.031250   0.531250   0.093750         0.0003
     1127           0.031250   0.531250   0.156250         0.0003
     1128           0.031250   0.531250   0.218750         0.0003
     1129           0.031250   0.531250   0.281250         0.0003
     1130           0.031250   0.531250   0.343750         0.0003
     1131           0.031250   0.531250   0.406250         0.0003
     1132           0.031250   0.531250   0.468750         0.0003
     1133           0.031250   0.531250   0.531250         0.0003
     1134           0.031250   0.531250   0.593750         0.0003
     1135           0.031250   0.531250   0.656250         0.0003
     1136           0.031250   0.531250   0.718750         0.0003
     1137           0.031250   0.531250   0.781250         0.0003
     1138           0.031250   0.531250   0.843750         0.0003
     1139           0.031250   0.531250   0.906250         0.0003
     1140           0.031250   0.531250   0.968750         0.0003
     1141           0.031250   0.593750   0.031250         0.0003
     1142           0.031250   0.593750   0.093750         0.0003
     1143           0.031250   0.593750   0.156250         0.0003
     1144           0.031250   0.593750   0.218750         0.0003
     1145           0.031250   0.593750   0.281250         0.0003
     1146           0.031250   0.593750   0.343750         0.0003
     1147           0.031250   0.593750   0.406250         0.0003
     1148           0.031250   0.593750   0.468750         0.0003
     1149           0.031250   0.593750   0.531250         0.0003
     1150           0.031250   0.593750   0.593750         0.0003
     1151           0.031250   0.593750   0.656250         0.0003
     1152           0.031250   0.593750   0.718750         0.0003
     1153           0.031250   0.593750   0.781250         0.0003
     1154           0.031250   0.593750   0.843750         0.0003
     1155           0.031250   0.593750   0.906250         0.0003
     1156           0.031250   0.593750   0.968750         0.0003
     1157           0.031250   0.656250   0.031250         0.0003
     1158           0.031250   0.656250   0.093750         0.0003
     1159           0.031250   0.656250   0.156250         0.0003
     1160           0.031250   0.656250   0.218750         0.0003
     1161           0.031250   0.656250   0.281250         0.0003
     1162           0.031250   0.656250   0.343750         0.0003
     1163           0.031250   0.656250   0.406250         0.0003
[...]
  K point   3010 =   0.468750  0.843750  0.843750  Weight =    0.000
--------------------------------------------------------------------------------

 Frequencies (cm-1) : 

  292.19  347.63  359.31  427.50  598.78  814.83


--------------------------------------------------------------------------------
  K point   3011 =   0.468750  0.843750  0.906250  Weight =    0.000
--------------------------------------------------------------------------------

 Frequencies (cm-1) : 

  294.98  331.01  364.85  408.43  625.13  808.17


--------------------------------------------------------------------------------
  K point   3012 =   0.468750  0.843750  0.968750  Weight =    0.000
--------------------------------------------------------------------------------

 Frequencies (cm-1) : 

  296.91  336.84  373.85  405.75  639.19  790.73


--------------------------------------------------------------------------------
  K point   3013 =   0.468750  0.906250  0.031250  Weight =    0.000
--------------------------------------------------------------------------------

 Frequencies (cm-1) : 

  295.30  321.60  361.07  391.09  659.15  794.92


--------------------------------------------------------------------------------
  K point   3014 =   0.468750  0.906250  0.093750  Weight =    0.000
--------------------------------------------------------------------------------

 Frequencies (cm-1) : 

  303.67  347.54  374.67  420.69  633.63  779.42


--------------------------------------------------------------------------------
  K point   3015 =   0.468750  0.906250  0.156250  Weight =    0.000
--------------------------------------------------------------------------------

 Frequencies (cm-1) : 

  315.39  378.69  396.04  449.51  594.10  763.76


--------------------------------------------------------------------------------
  K point   3016 =   0.468750  0.906250  0.218750  Weight =    0.000
--------------------------------------------------------------------------------

 Frequencies (cm-1) : 

  329.85  405.30  418.83  467.70  548.45  754.10


--------------------------------------------------------------------------------
  K point   3017 =   0.468750  0.906250  0.281250  Weight =    0.000
--------------------------------------------------------------------------------

 Frequencies (cm-1) : 

  344.78  411.34  440.79  473.77  507.81  755.48


--------------------------------------------------------------------------------
  K point   3018 =   0.468750  0.906250  0.343750  Weight =    0.000
--------------------------------------------------------------------------------

 Frequencies (cm-1) : 

  356.11  390.21  457.43  477.82  481.54  765.49


--------------------------------------------------------------------------------
  K point   3019 =   0.468750  0.906250  0.406250  Weight =    0.000
--------------------------------------------------------------------------------

 Frequencies (cm-1) : 

  351.97  374.01  457.69  470.35  485.95  776.76


--------------------------------------------------------------------------------
  K point   3020 =   0.468750  0.906250  0.468750  Weight =    0.000
--------------------------------------------------------------------------------

 Frequencies (cm-1) : 

  341.92  372.85  451.34  472.11  487.08  783.73


--------------------------------------------------------------------------------
  K point   3021 =   0.468750  0.906250  0.531250  Weight =    0.000
--------------------------------------------------------------------------------

 Frequencies (cm-1) : 

  348.36  370.56  455.56  467.99  482.96  784.92


--------------------------------------------------------------------------------
  K point   3022 =   0.468750  0.906250  0.593750  Weight =    0.000
--------------------------------------------------------------------------------

 Frequencies (cm-1) : 

  347.90  383.60  451.05  472.17  477.82  782.75


--------------------------------------------------------------------------------
  K point   3023 =   0.468750  0.906250  0.656250  Weight =    0.000
--------------------------------------------------------------------------------

 Frequencies (cm-1) : 

  333.93  397.49  432.38  466.99  500.10  782.45


--------------------------------------------------------------------------------
  K point   3024 =   0.468750  0.906250  0.718750  Weight =    0.000
--------------------------------------------------------------------------------

 Frequencies (cm-1) : 

  317.84  385.84  409.29  456.54  539.49  788.27


--------------------------------------------------------------------------------
  K point   3025 =   0.468750  0.906250  0.781250  Weight =    0.000
--------------------------------------------------------------------------------

 Frequencies (cm-1) : 

  304.00  359.05  385.32  435.50  584.77  798.80


--------------------------------------------------------------------------------
  K point   3026 =   0.468750  0.906250  0.843750  Weight =    0.000
--------------------------------------------------------------------------------

 Frequencies (cm-1) : 

  294.98  331.01  364.85  408.43  625.13  808.17


--------------------------------------------------------------------------------
  K point   3027 =   0.468750  0.906250  0.906250  Weight =    0.000
--------------------------------------------------------------------------------

 Frequencies (cm-1) : 

  291.56  310.71  355.55  383.86  653.82  811.26


--------------------------------------------------------------------------------
  K point   3028 =   0.468750  0.906250  0.968750  Weight =    0.000
--------------------------------------------------------------------------------

 Frequencies (cm-1) : 

  291.81  306.78  358.37  373.13  666.09  806.40


--------------------------------------------------------------------------------
  K point   3029 =   0.468750  0.968750  0.031250  Weight =    0.000
--------------------------------------------------------------------------------

 Frequencies (cm-1) : 

  287.68  294.43  354.66  363.51  660.93  822.98


--------------------------------------------------------------------------------
  K point   3030 =   0.468750  0.968750  0.093750  Weight =    0.000
--------------------------------------------------------------------------------

 Frequencies (cm-1) : 

  289.33  316.17  369.47  387.82  631.16  819.77


--------------------------------------------------------------------------------
  K point   3031 =   0.468750  0.968750  0.156250  Weight =    0.000
--------------------------------------------------------------------------------

 Frequencies (cm-1) : 

  296.08  346.85  389.73  420.52  589.28  809.95


--------------------------------------------------------------------------------
  K point   3032 =   0.468750  0.968750  0.218750  Weight =    0.000
--------------------------------------------------------------------------------

 Frequencies (cm-1) : 

  307.35  376.03  410.57  449.25  542.25  798.94


--------------------------------------------------------------------------------
  K point   3033 =   0.468750  0.968750  0.281250  Weight =    0.000
--------------------------------------------------------------------------------

 Frequencies (cm-1) : 

  320.77  390.85  429.46  464.98  501.46  793.31


--------------------------------------------------------------------------------
  K point   3034 =   0.468750  0.968750  0.343750  Weight =    0.000
--------------------------------------------------------------------------------

 Frequencies (cm-1) : 

  333.45  378.29  444.58  470.96  479.95  794.74


--------------------------------------------------------------------------------
  K point   3035 =   0.468750  0.968750  0.406250  Weight =    0.000
--------------------------------------------------------------------------------

 Frequencies (cm-1) : 

  342.78  354.56  454.52  461.25  484.54  798.31


--------------------------------------------------------------------------------
  K point   3036 =   0.468750  0.968750  0.468750  Weight =    0.000
--------------------------------------------------------------------------------

 Frequencies (cm-1) : 

  344.17  347.87  456.22  458.53  489.35  797.95


--------------------------------------------------------------------------------
  K point   3037 =   0.468750  0.968750  0.531250  Weight =    0.000
--------------------------------------------------------------------------------

 Frequencies (cm-1) : 

  346.08  357.97  456.01  463.09  488.21  790.80


--------------------------------------------------------------------------------
  K point   3038 =   0.468750  0.968750  0.593750  Weight =    0.000
--------------------------------------------------------------------------------

 Frequencies (cm-1) : 

  339.69  387.03  447.36  478.56  484.05  778.42


--------------------------------------------------------------------------------
  K point   3039 =   0.468750  0.968750  0.656250  Weight =    0.000
--------------------------------------------------------------------------------

 Frequencies (cm-1) : 

  329.25  408.57  433.14  474.65  508.94  767.05


--------------------------------------------------------------------------------
  K point   3040 =   0.468750  0.968750  0.718750  Weight =    0.000
--------------------------------------------------------------------------------

 Frequencies (cm-1) : 

  316.98  399.57  414.72  465.67  550.29  764.97


--------------------------------------------------------------------------------
  K point   3041 =   0.468750  0.968750  0.781250  Weight =    0.000
--------------------------------------------------------------------------------

 Frequencies (cm-1) : 

  305.47  371.12  394.08  441.00  597.82  774.76


--------------------------------------------------------------------------------
  K point   3042 =   0.468750  0.968750  0.843750  Weight =    0.000
--------------------------------------------------------------------------------

 Frequencies (cm-1) : 

  296.91  336.84  373.85  405.75  639.19  790.73


--------------------------------------------------------------------------------
  K point   3043 =   0.468750  0.968750  0.906250  Weight =    0.000
--------------------------------------------------------------------------------

 Frequencies (cm-1) : 

  291.81  306.78  358.37  373.13  666.09  806.40


--------------------------------------------------------------------------------
  K point   3044 =   0.468750  0.968750  0.968750  Weight =    0.000
--------------------------------------------------------------------------------

 Frequencies (cm-1) : 

  288.55  291.10  353.26  354.70  673.57  818.02


--------------------------------------------------------------------------------
  Phonon properties (per mole of unit cells): Temperature =      0.000 K
--------------------------------------------------------------------------------
  Zero point energy            =        0.169722 eV
--------------------------------------------------------------------------------

  Phonon density of states : 

--------------------------------------------------------------------------------
 Frequency (cm-1) Density of States                                             
--------------------------------------------------------------------------------
    0.00000 |                                                              0.000
   17.45647 |                                                              0.000
   34.91294 |                                                              0.000
   52.36941 |                                                              0.000
   69.82587 |*                                                             0.001
   87.28234 |*                                                             0.001
  104.73881 |**                                                            0.003
  122.19528 |**                                                            0.002
  139.65175 |****                                                          0.005
  157.10822 |****                                                          0.005
  174.56469 |*****                                                         0.006
  192.02116 |********                                                      0.010
  209.47762 |*******                                                       0.009
  226.93409 |************                                                  0.015
  244.39056 |*************                                                 0.015
  261.84703 |******************                                            0.022
  279.30350 |***************************                                   0.033
  296.75997 |*******************************                               0.037
  314.21644 |**********************************                            0.041
  331.67291 |********************************                              0.038
  349.12937 |**************************************                        0.045
  366.58584 |*******************************************************       0.065
  384.04231 |*********************************************************     0.068
  401.49878 |*********************************************************     0.067
  418.95525 |***********************************************************   0.070
  436.41172 |*******************************************************       0.065
  453.86819 |********************************************                  0.052
  471.32466 |*************************************************             0.058
  488.78112 |**********                                                    0.012
  506.23759 |*********                                                     0.011
  523.69406 |********                                                      0.010
  541.15053 |********                                                      0.010
  558.60700 |********                                                      0.010
  576.06347 |********                                                      0.010
  593.51994 |***********                                                   0.014
  610.97640 |*********                                                     0.011
  628.43287 |******                                                        0.007
  645.88934 |****                                                          0.006
  663.34581 |******                                                        0.008
  680.80228 |***                                                           0.004
  698.25875 |*******                                                       0.009
  715.71522 |*****                                                         0.007
  733.17169 |********                                                      0.010
  750.62815 |*********                                                     0.011
  768.08462 |*********                                                     0.011
  785.54109 |********                                                      0.010
  802.99756 |**********                                                    0.012
  820.45403 |*******                                                       0.009
  837.91050 |******                                                        0.008
  855.36697 |******                                                        0.007
  872.82344 |******                                                        0.007
  890.27990 |*****                                                         0.007
  907.73637 |****                                                          0.006
  925.19284 |****                                                          0.005
  942.64931 |****                                                          0.006
  960.10578 |***                                                           0.004
  977.56225 |***                                                           0.004
  995.01872 |***                                                           0.004
 1012.47518 |**                                                            0.003
 1029.93165 |**                                                            0.003
 1047.38812 |**                                                            0.003
 1064.84459 |*                                                             0.002
 1082.30106 |*                                                             0.002
 1099.75753 |                                                              0.001
--------------------------------------------------------------------------------




  Phonon density of states written as mgo_ph.dens                   



  Phonon dispersion curves : 

--------------------------------------------------------------------------------
  Section number =   1
--------------------------------------------------------------------------------
  Frequency (cm-1) Phonon dispersion                                            
--------------------------------------------------------------------------------
  1083.64   |                         ***************                    
  1038.49   |                     *****             ***                  
   993.34   |                 ****                    ***                
   948.19   |              ****                         ***              
   903.04   |           ****                              ***            
   857.88   |        ****                                   ***          
   812.73   |   ******                                        ****       
   767.58   |  **                                                *****   
   722.43   | **                                                     **  
   677.28   | *                                                       ** 
   632.13   |*********                                                 **
   586.97   |***     ***                                                *
   541.82   |          ***                                             **
   496.67   |            ***                                          ** 
   451.52   |**            ***                                ***********
   406.37   |***             ***                    ************      ***
   361.21   |****      ******************************    ***        *****
   316.06   |**********          ***                    **    ********   
   270.91   |  ********            **                 ***  ****          
   225.76   |         *******       ***              ** ****             
   180.61   |               ******    ***           *****                
   135.46   |                    *****  ***       *****                  
    90.30   |                        **** ***    ****                    
    45.15   |                           ******  ***                      
     0.00   |                               ******                       
--------------------------------------------------------------------------------


  Phonon dispersion written as mgo_ph.disp                   

  Time to end of properties =       3.0938 seconds


  Peak dynamic memory used =       0.87 MB 


  Timing analysis for GULP :

--------------------------------------------------------------------------------
  Task / Subroutine                                          Time (Seconds)
--------------------------------------------------------------------------------
  Calculation of reciprocal space energy and derivatives          0.4531
  Calculation of real space energy and derivatives                1.4531
  Calculation of phonons                                          3.0156
  Calculation of scattering                                       0.0000
--------------------------------------------------------------------------------
  Total CPU time                                                  3.0938
--------------------------------------------------------------------------------


  Job Finished at 13:59.23 21st November   2022                               

