********************************************************************************
*                       GENERAL UTILITY LATTICE PROGRAM                        *
*                                 Julian Gale                                  *
*                      Nanochemistry Research Institute                        *
*                           Department of Chemistry                            *
*                    Curtin University, Western Australia                      *
********************************************************************************
* Version = 4.3.5 * Last modified = 16th December 2015                         *
********************************************************************************
*  single       - perform a single point run                                   *
*  conp         - constant pressure calculation                                *
*  phonon       - calculate phonons for final geometry                         *
********************************************************************************
* ASE calculation                                                              *
********************************************************************************


  Job Started  at 14:10.24 21st November   2022                               

  Number of CPUs =     1


  Total number of configurations input =   1

********************************************************************************
*  Input for Configuration =   1                                               *
********************************************************************************

  Formula = MgO                                                         

  Number of irreducible atoms/shells =       2


  Total number atoms/shells =       2

  Dimensionality = 3               :  Bulk   



  Cartesian lattice vectors (Angstroms) :

        2.978334    0.000000    0.000000
        1.489167    2.579313    0.000000
        1.489167    0.859771    2.431800

  Cell parameters (Angstroms/Degrees):

  a =       2.9783    alpha =  60.0000
  b =       2.9783    beta  =  60.0000
  c =       2.9783    gamma =  60.0000

  Initial cell volume =          18.681219 Angs**3

  Shrinking factors =      4     4     4

  Temperature of configuration =  0.000     K 

  Pressure of configuration =         0.000 GPa 

  Fractional coordinates of asymmetric unit :

--------------------------------------------------------------------------------
   No.  Atomic       x           y          z         Charge      Occupancy
        Label      (Frac)      (Frac)     (Frac)        (e)         (Frac)  
--------------------------------------------------------------------------------
      1 Mg    c    0.000000    0.000000    0.000000     2.00000    1.000000    
      2 O     c    0.500000    0.500000    0.500000    -2.00000    1.000000    
--------------------------------------------------------------------------------


  Brillouin zone sampling points :

--------------------------------------------------------------------------------
  Point number          x          y          z            Weight
--------------------------------------------------------------------------------
        1           0.125000   0.125000   0.125000         0.0313
        2           0.125000   0.125000   0.375000         0.0313
        3           0.125000   0.125000   0.625000         0.0313
        4           0.125000   0.125000   0.875000         0.0313
        5           0.125000   0.375000   0.125000         0.0313
        6           0.125000   0.375000   0.375000         0.0313
        7           0.125000   0.375000   0.625000         0.0313
        8           0.125000   0.375000   0.875000         0.0313
        9           0.125000   0.625000   0.125000         0.0313
       10           0.125000   0.625000   0.375000         0.0313
       11           0.125000   0.625000   0.625000         0.0313
       12           0.125000   0.625000   0.875000         0.0313
       13           0.125000   0.875000   0.125000         0.0313
       14           0.125000   0.875000   0.375000         0.0313
       15           0.125000   0.875000   0.625000         0.0313
       16           0.125000   0.875000   0.875000         0.0313
       17           0.375000   0.125000   0.125000         0.0313
       18           0.375000   0.125000   0.375000         0.0313
       19           0.375000   0.125000   0.625000         0.0313
       20           0.375000   0.125000   0.875000         0.0313
       21           0.375000   0.375000   0.125000         0.0313
       22           0.375000   0.375000   0.375000         0.0313
       23           0.375000   0.375000   0.625000         0.0313
       24           0.375000   0.375000   0.875000         0.0313
       25           0.375000   0.625000   0.125000         0.0313
       26           0.375000   0.625000   0.375000         0.0313
       27           0.375000   0.625000   0.625000         0.0313
       28           0.375000   0.625000   0.875000         0.0313
       29           0.375000   0.875000   0.125000         0.0313
       30           0.375000   0.875000   0.375000         0.0313
       31           0.375000   0.875000   0.625000         0.0313
       32           0.375000   0.875000   0.875000         0.0313
--------------------------------------------------------------------------------


********************************************************************************
*  General input information                                                   *
********************************************************************************

  Species output for all configurations : 

--------------------------------------------------------------------------------
  Species    Type    Atomic    Atomic    Charge       Radii (Angs)     Library
                     Number     Mass       (e)     Cova   Ionic  VDW   Symbol
--------------------------------------------------------------------------------
    Mg       Core       12      24.31   2.000000   1.100  0.000  1.640          
    O        Core        8      16.00  -2.000000   0.730  0.000  1.360          
--------------------------------------------------------------------------------


  Lattice summation method               =    Ewald          (3-D)
                                         =    Parry          (2-D)
                                         =    Saunders et al (1-D)
  Accuracy factor for lattice sums       =   12.000


  Time limit = Infinity

  Maximum range for interatomic potentials =    100000.000000 Angstroms

  General interatomic potentials :

--------------------------------------------------------------------------------
Atom  Types   Potential         A         B         C         D     Cutoffs(Ang)
  1     2                                                            Min    Max 
--------------------------------------------------------------------------------
O    c Mg   c Buckingham    0.130E+04 0.300      0.00      0.00     0.000 12.000
O    c O    c Buckingham    0.228E+05 0.149      27.9      0.00     0.000 12.000
--------------------------------------------------------------------------------

********************************************************************************
*  Output for configuration   1                                                *
********************************************************************************


  Components of energy : 

--------------------------------------------------------------------------------
  Interatomic potentials     =           6.72051513 eV
  Monopole - monopole (real) =          -5.11585306 eV
  Monopole - monopole (recip)=         -42.67997969 eV
  Monopole - monopole (total)=         -47.79583275 eV
--------------------------------------------------------------------------------
  Total lattice energy       =         -41.07531762 eV
--------------------------------------------------------------------------------
  Total lattice energy       =           -3963.1403 kJ/(mole unit cells)
--------------------------------------------------------------------------------

  Born effective charge tensors : 

-------------------------------------------------------------------------------
  Atom             x           y             z
-------------------------------------------------------------------------------
   1 Mg    x       2.0000      0.0000      0.0000
           y       0.0000      2.0000      0.0000
           z       0.0000      0.0000      2.0000
-------------------------------------------------------------------------------
   2 O     x      -2.0000      0.0000      0.0000
           y       0.0000     -2.0000      0.0000
           z       0.0000      0.0000     -2.0000
-------------------------------------------------------------------------------




  Elastic Constant Matrix: (Units=GPa)

-------------------------------------------------------------------------------
  Indices      1         2         3         4         5         6    
-------------------------------------------------------------------------------
       1    430.3381  143.4444  124.0198   27.4705   -0.0000   -0.0000
       2    143.4444  430.3381  124.0198  -27.4705   -0.0000    0.0000
       3    124.0198  124.0198  449.7626    0.0000    0.0000    0.0000
       4     27.4705  -27.4705    0.0000  124.0223   -0.0000   -0.0000
       5     -0.0000   -0.0000    0.0000   -0.0000  124.0223   27.4705
       6     -0.0000    0.0000    0.0000   -0.0000   27.4705  143.4468
-------------------------------------------------------------------------------


  Elastic Compliance Matrix: (Units=1/GPa)

-------------------------------------------------------------------------------
  Indices      1         2         3         4         5         6    
-------------------------------------------------------------------------------
       1    0.002809 -0.000831 -0.000546 -0.000806  0.000000  0.000000
       2   -0.000831  0.002809 -0.000546  0.000806  0.000000 -0.000000
       3   -0.000546 -0.000546  0.002524 -0.000000 -0.000000 -0.000000
       4   -0.000806  0.000806 -0.000000  0.008420 -0.000000  0.000000
       5    0.000000  0.000000 -0.000000 -0.000000  0.008420 -0.001613
       6    0.000000 -0.000000 -0.000000  0.000000 -0.001613  0.007280
-------------------------------------------------------------------------------

  Mechanical properties :

-------------------------------------------------------------------------------
  Convention :                    Reuss         Voigt         Hill
-------------------------------------------------------------------------------
  Bulk  Modulus (GPa)     =     232.60075     232.60075     232.60075
  Shear Modulus (GPa)     =     133.19011     139.56191     136.37601
-------------------------------------------------------------------------------
  Velocity S-wave (km/s)  =       6.09683       6.24096       6.16932
  Velocity P-wave (km/s)  =      10.69940      10.80963      10.75466
-------------------------------------------------------------------------------
  Compressibility (1/GPa) =    0.00429921
-------------------------------------------------------------------------------
  Stress axis :                     x             y             z
-------------------------------------------------------------------------------
  Youngs Moduli (GPa)     =     355.95460     355.95460     396.15028
-------------------------------------------------------------------------------
  Poissons Ratio (x)      =                     0.29568       0.21614
  Poissons Ratio (y)      =       0.29568                     0.21614
  Poissons Ratio (z)      =       0.19421       0.19421
-------------------------------------------------------------------------------


  Piezoelectric Strain Matrix: (Units=C/m**2)

-------------------------------------------------------------------------------
  Indices      1         2         3         4         5         6    
-------------------------------------------------------------------------------
       x    -0.00000  -0.00000   0.00000  -0.00000  -0.00000  -0.00000
       y    -0.00000   0.00000   0.00000   0.00000  -0.00000  -0.00000
       z    -0.00000   0.00000  -0.00000   0.00000   0.00000  -0.00000
-------------------------------------------------------------------------------


  Piezoelectric Stress Matrix: (Units=10**-11 C/N)

-------------------------------------------------------------------------------
  Indices      1         2         3         4         5         6    
-------------------------------------------------------------------------------
       x    -0.00000  -0.00000   0.00000  -0.00000  -0.00000  -0.00000
       y    -0.00000   0.00000   0.00000   0.00000  -0.00000  -0.00000
       z    -0.00000   0.00000  -0.00000   0.00000   0.00000  -0.00000
-------------------------------------------------------------------------------


  Static dielectric constant tensor : 

-------------------------------------------------------------------------------
              x         y         z
-------------------------------------------------------------------------------
       x     7.83310   0.00000   0.00000
       y     0.00000   7.83310   0.00000
       z     0.00000   0.00000   7.83310
--------------------------------------------------------------------------------

  Static refractive indices : 

-------------------------------------------------------------------------------
    1 =    2.79877      2 =    2.79877      3 =    2.79877
-------------------------------------------------------------------------------


  Phonon Calculation : 

  Number of k points for this configuration =       32

--------------------------------------------------------------------------------
  K point      1 =   0.125000  0.125000  0.125000  Weight =    0.031
--------------------------------------------------------------------------------

  Frequencies (cm-1) [NB: Negative implies an imaginary mode]:

   99.01   99.01  191.84  396.19  396.19 1093.74


--------------------------------------------------------------------------------
  K point      2 =   0.125000  0.125000  0.375000  Weight =    0.031
--------------------------------------------------------------------------------

  Frequencies (cm-1) [NB: Negative implies an imaginary mode]:

  225.47  280.11  365.31  417.48  440.26  958.55


--------------------------------------------------------------------------------
  K point      3 =   0.125000  0.125000  0.625000  Weight =    0.031
--------------------------------------------------------------------------------

  Frequencies (cm-1) [NB: Negative implies an imaginary mode]:

  292.05  325.06  372.75  393.00  636.81  806.58


--------------------------------------------------------------------------------
  K point      4 =   0.125000  0.125000  0.875000  Weight =    0.031
--------------------------------------------------------------------------------

  Frequencies (cm-1) [NB: Negative implies an imaginary mode]:

  198.47  202.64  329.24  402.55  409.18 1018.94


--------------------------------------------------------------------------------
  K point      5 =   0.125000  0.375000  0.125000  Weight =    0.031
--------------------------------------------------------------------------------

  Frequencies (cm-1) [NB: Negative implies an imaginary mode]:

  225.47  280.11  365.31  417.48  440.26  958.55


--------------------------------------------------------------------------------
  K point      6 =   0.125000  0.375000  0.375000  Weight =    0.031
--------------------------------------------------------------------------------

  Frequencies (cm-1) [NB: Negative implies an imaginary mode]:

  286.43  316.12  428.88  429.58  442.15  893.11


--------------------------------------------------------------------------------
  K point      7 =   0.125000  0.375000  0.625000  Weight =    0.031
--------------------------------------------------------------------------------

  Frequencies (cm-1) [NB: Negative implies an imaginary mode]:

  352.78  432.60  437.67  475.10  562.34  699.85


--------------------------------------------------------------------------------
  K point      8 =   0.125000  0.375000  0.875000  Weight =    0.031
--------------------------------------------------------------------------------

  Frequencies (cm-1) [NB: Negative implies an imaginary mode]:

  298.31  369.45  387.45  449.12  519.48  832.81


--------------------------------------------------------------------------------
  K point      9 =   0.125000  0.625000  0.125000  Weight =    0.031
--------------------------------------------------------------------------------

  Frequencies (cm-1) [NB: Negative implies an imaginary mode]:

  292.05  325.06  372.75  393.00  636.81  806.58


--------------------------------------------------------------------------------
  K point     10 =   0.125000  0.625000  0.375000  Weight =    0.031
--------------------------------------------------------------------------------

  Frequencies (cm-1) [NB: Negative implies an imaginary mode]:

  352.78  432.60  437.67  475.10  562.34  699.85


--------------------------------------------------------------------------------
  K point     11 =   0.125000  0.625000  0.625000  Weight =    0.031
--------------------------------------------------------------------------------

  Frequencies (cm-1) [NB: Negative implies an imaginary mode]:

  334.39  382.99  444.83  475.30  482.71  787.28


--------------------------------------------------------------------------------
  K point     12 =   0.125000  0.625000  0.875000  Weight =    0.031
--------------------------------------------------------------------------------

  Frequencies (cm-1) [NB: Negative implies an imaginary mode]:

  298.31  369.45  387.45  449.12  519.48  832.81


--------------------------------------------------------------------------------
  K point     13 =   0.125000  0.875000  0.125000  Weight =    0.031
--------------------------------------------------------------------------------

  Frequencies (cm-1) [NB: Negative implies an imaginary mode]:

  198.47  202.64  329.24  402.55  409.18 1018.94


--------------------------------------------------------------------------------
  K point     14 =   0.125000  0.875000  0.375000  Weight =    0.031
--------------------------------------------------------------------------------

  Frequencies (cm-1) [NB: Negative implies an imaginary mode]:

  298.31  369.45  387.45  449.12  519.48  832.81


--------------------------------------------------------------------------------
  K point     15 =   0.125000  0.875000  0.625000  Weight =    0.031
--------------------------------------------------------------------------------

  Frequencies (cm-1) [NB: Negative implies an imaginary mode]:

  298.31  369.45  387.45  449.12  519.48  832.81


--------------------------------------------------------------------------------
  K point     16 =   0.125000  0.875000  0.875000  Weight =    0.031
--------------------------------------------------------------------------------

  Frequencies (cm-1) [NB: Negative implies an imaginary mode]:

  198.47  202.64  329.24  402.55  409.18 1018.94


--------------------------------------------------------------------------------
  K point     17 =   0.375000  0.125000  0.125000  Weight =    0.031
--------------------------------------------------------------------------------

  Frequencies (cm-1) [NB: Negative implies an imaginary mode]:

  225.47  280.11  365.31  417.48  440.26  958.55


--------------------------------------------------------------------------------
  K point     18 =   0.375000  0.125000  0.375000  Weight =    0.031
--------------------------------------------------------------------------------

  Frequencies (cm-1) [NB: Negative implies an imaginary mode]:

  286.43  316.12  428.88  429.58  442.15  893.11


--------------------------------------------------------------------------------
  K point     19 =   0.375000  0.125000  0.625000  Weight =    0.031
--------------------------------------------------------------------------------

  Frequencies (cm-1) [NB: Negative implies an imaginary mode]:

  352.78  432.60  437.67  475.10  562.34  699.85


--------------------------------------------------------------------------------
  K point     20 =   0.375000  0.125000  0.875000  Weight =    0.031
--------------------------------------------------------------------------------

  Frequencies (cm-1) [NB: Negative implies an imaginary mode]:

  298.31  369.45  387.45  449.12  519.48  832.81


--------------------------------------------------------------------------------
  K point     21 =   0.375000  0.375000  0.125000  Weight =    0.031
--------------------------------------------------------------------------------

  Frequencies (cm-1) [NB: Negative implies an imaginary mode]:

  286.43  316.12  428.88  429.58  442.15  893.11


--------------------------------------------------------------------------------
  K point     22 =   0.375000  0.375000  0.375000  Weight =    0.031
--------------------------------------------------------------------------------

  Frequencies (cm-1) [NB: Negative implies an imaginary mode]:

  255.97  255.97  366.84  366.84  559.95  912.09


--------------------------------------------------------------------------------
  K point     23 =   0.375000  0.375000  0.625000  Weight =    0.031
--------------------------------------------------------------------------------

  Frequencies (cm-1) [NB: Negative implies an imaginary mode]:

  311.63  381.44  418.45  476.79  607.94  722.85


--------------------------------------------------------------------------------
  K point     24 =   0.375000  0.375000  0.875000  Weight =    0.031
--------------------------------------------------------------------------------

  Frequencies (cm-1) [NB: Negative implies an imaginary mode]:

  334.39  382.99  444.83  475.30  482.71  787.28


--------------------------------------------------------------------------------
  K point     25 =   0.375000  0.625000  0.125000  Weight =    0.031
--------------------------------------------------------------------------------

  Frequencies (cm-1) [NB: Negative implies an imaginary mode]:

  352.78  432.60  437.67  475.10  562.34  699.85


--------------------------------------------------------------------------------
  K point     26 =   0.375000  0.625000  0.375000  Weight =    0.031
--------------------------------------------------------------------------------

  Frequencies (cm-1) [NB: Negative implies an imaginary mode]:

  311.63  381.44  418.45  476.79  607.94  722.85


--------------------------------------------------------------------------------
  K point     27 =   0.375000  0.625000  0.625000  Weight =    0.031
--------------------------------------------------------------------------------

  Frequencies (cm-1) [NB: Negative implies an imaginary mode]:

  311.63  381.44  418.45  476.79  607.94  722.85


--------------------------------------------------------------------------------
  K point     28 =   0.375000  0.625000  0.875000  Weight =    0.031
--------------------------------------------------------------------------------

  Frequencies (cm-1) [NB: Negative implies an imaginary mode]:

  352.78  432.60  437.67  475.10  562.34  699.85


--------------------------------------------------------------------------------
  K point     29 =   0.375000  0.875000  0.125000  Weight =    0.031
--------------------------------------------------------------------------------

  Frequencies (cm-1) [NB: Negative implies an imaginary mode]:

  298.31  369.45  387.45  449.12  519.48  832.81


--------------------------------------------------------------------------------
  K point     30 =   0.375000  0.875000  0.375000  Weight =    0.031
--------------------------------------------------------------------------------

  Frequencies (cm-1) [NB: Negative implies an imaginary mode]:

  334.39  382.99  444.83  475.30  482.71  787.28


--------------------------------------------------------------------------------
  K point     31 =   0.375000  0.875000  0.625000  Weight =    0.031
--------------------------------------------------------------------------------

  Frequencies (cm-1) [NB: Negative implies an imaginary mode]:

  352.78  432.60  437.67  475.10  562.34  699.85


--------------------------------------------------------------------------------
  K point     32 =   0.375000  0.875000  0.875000  Weight =    0.031
--------------------------------------------------------------------------------

  Frequencies (cm-1) [NB: Negative implies an imaginary mode]:

  292.05  325.06  372.75  393.00  636.81  806.58


--------------------------------------------------------------------------------
  Phonon properties (per mole of unit cells): Temperature =      0.000 K
--------------------------------------------------------------------------------
  Zero point energy            =        0.174330 eV
--------------------------------------------------------------------------------

  Phonon density of states : 

--------------------------------------------------------------------------------
 Frequency (cm-1) Density of States                                             
--------------------------------------------------------------------------------
    0.00000 |                                                              0.000
   17.08967 |                                                              0.000
   34.17935 |                                                              0.000
   51.26902 |                                                              0.000
   68.35869 |                                                              0.000
   85.44837 |****                                                          0.010
  102.53804 |                                                              0.000
  119.62771 |                                                              0.000
  136.71739 |                                                              0.000
  153.80706 |                                                              0.000
  170.89673 |                                                              0.000
  187.98640 |*****************                                             0.036
  205.07608 |                                                              0.000
  222.16575 |*******                                                       0.016
  239.25542 |****                                                          0.010
  256.34510 |                                                              0.000
  273.43477 |**************                                                0.031
  290.52444 |**********************                                        0.047
  307.61412 |**************                                                0.031
  324.70379 |**********************                                        0.047
  341.79346 |**************                                                0.031
  358.88314 |**********************************                            0.073
  375.97281 |*************************************                         0.078
  393.06248 |*******************                                           0.042
  410.15216 |**************                                                0.031
  427.24183 |***********************************************************   0.125
  444.33150 |**********************                                        0.047
  461.42118 |*****************************                                 0.063
  478.51085 |*******                                                       0.016
  495.60052 |                                                              0.000
  512.69019 |**************                                                0.031
  529.77987 |                                                              0.000
  546.86954 |*****************                                             0.036
  563.95921 |                                                              0.000
  581.04889 |                                                              0.000
  598.13856 |*******                                                       0.016
  615.22823 |                                                              0.000
  632.31791 |*******                                                       0.016
  649.40758 |                                                              0.000
  666.49725 |                                                              0.000
  683.58693 |**************                                                0.031
  700.67660 |                                                              0.000
  717.76627 |*******                                                       0.016
  734.85595 |                                                              0.000
  751.94562 |                                                              0.000
  769.03529 |                                                              0.000
  786.12497 |*******                                                       0.016
  803.21464 |*******                                                       0.016
  820.30431 |**************                                                0.031
  837.39398 |                                                              0.000
  854.48366 |                                                              0.000
  871.57333 |                                                              0.000
  888.66300 |*******                                                       0.016
  905.75268 |**                                                            0.005
  922.84235 |                                                              0.000
  939.93202 |                                                              0.000
  957.02170 |*******                                                       0.016
  974.11137 |                                                              0.000
  991.20104 |                                                              0.000
 1008.29072 |*******                                                       0.016
 1025.38039 |                                                              0.000
 1042.47006 |                                                              0.000
 1059.55974 |                                                              0.000
 1076.64941 |**                                                            0.005
--------------------------------------------------------------------------------




  Phonon density of states written as mgo_ph_dos_4.dens             



  Time to end of properties =       0.0313 seconds


  Peak dynamic memory used =       0.47 MB 


  Timing analysis for GULP :

--------------------------------------------------------------------------------
  Task / Subroutine                                          Time (Seconds)
--------------------------------------------------------------------------------
  Calculation of real space energy and derivatives                0.0313
  Calculation of phonons                                          0.0313
  Calculation of scattering                                       0.0000
--------------------------------------------------------------------------------
  Total CPU time                                                  0.0313
--------------------------------------------------------------------------------


  Job Finished at 14:10.24 21st November   2022                               

