********************************************************************************
*                       GENERAL UTILITY LATTICE PROGRAM                        *
*                                 Julian Gale                                  *
*                      Nanochemistry Research Institute                        *
*                           Department of Chemistry                            *
*                    Curtin University, Western Australia                      *
********************************************************************************
* Version = 4.3.5 * Last modified = 16th December 2015                         *
********************************************************************************
*  single       - perform a single point run                                   *
*  conp         - constant pressure calculation                                *
*  phonon       - calculate phonons for final geometry                         *
********************************************************************************
* ASE calculation                                                              *
********************************************************************************


  Job Started  at 14:10.26 21st November   2022                               

  Number of CPUs =     1


  Total number of configurations input =   1

********************************************************************************
*  Input for Configuration =   1                                               *
********************************************************************************

  Formula = MgO                                                         

  Number of irreducible atoms/shells =       2


  Total number atoms/shells =       2

  Dimensionality = 3               :  Bulk   



  Cartesian lattice vectors (Angstroms) :

        2.978334    0.000000    0.000000
        1.489167    2.579313    0.000000
        1.489167    0.859771    2.431800

  Cell parameters (Angstroms/Degrees):

  a =       2.9783    alpha =  60.0000
  b =       2.9783    beta  =  60.0000
  c =       2.9783    gamma =  60.0000

  Initial cell volume =          18.681219 Angs**3

  Shrinking factors =     16    16    16

  Temperature of configuration =  0.000     K 

  Pressure of configuration =         0.000 GPa 

  Fractional coordinates of asymmetric unit :

--------------------------------------------------------------------------------
   No.  Atomic       x           y          z         Charge      Occupancy
        Label      (Frac)      (Frac)     (Frac)        (e)         (Frac)  
--------------------------------------------------------------------------------
      1 Mg    c    0.000000    0.000000    0.000000     2.00000    1.000000    
      2 O     c    0.500000    0.500000    0.500000    -2.00000    1.000000    
--------------------------------------------------------------------------------


  Brillouin zone sampling points :

--------------------------------------------------------------------------------
  Point number          x          y          z            Weight
--------------------------------------------------------------------------------
        1           0.031250   0.031250   0.031250         0.0005
        2           0.031250   0.031250   0.093750         0.0005
        3           0.031250   0.031250   0.156250         0.0005
        4           0.031250   0.031250   0.218750         0.0005
        5           0.031250   0.031250   0.281250         0.0005
        6           0.031250   0.031250   0.343750         0.0005
        7           0.031250   0.031250   0.406250         0.0005
        8           0.031250   0.031250   0.468750         0.0005
        9           0.031250   0.031250   0.531250         0.0005
       10           0.031250   0.031250   0.593750         0.0005
       11           0.031250   0.031250   0.656250         0.0005
       12           0.031250   0.031250   0.718750         0.0005
       13           0.031250   0.031250   0.781250         0.0005
       14           0.031250   0.031250   0.843750         0.0005
       15           0.031250   0.031250   0.906250         0.0005
       16           0.031250   0.031250   0.968750         0.0005
       17           0.031250   0.093750   0.031250         0.0005
       18           0.031250   0.093750   0.093750         0.0005
       19           0.031250   0.093750   0.156250         0.0005
       20           0.031250   0.093750   0.218750         0.0005
       21           0.031250   0.093750   0.281250         0.0005
       22           0.031250   0.093750   0.343750         0.0005
       23           0.031250   0.093750   0.406250         0.0005
       24           0.031250   0.093750   0.468750         0.0005
       25           0.031250   0.093750   0.531250         0.0005
       26           0.031250   0.093750   0.593750         0.0005
       27           0.031250   0.093750   0.656250         0.0005
       28           0.031250   0.093750   0.718750         0.0005
       29           0.031250   0.093750   0.781250         0.0005
       30           0.031250   0.093750   0.843750         0.0005
       31           0.031250   0.093750   0.906250         0.0005
       32           0.031250   0.093750   0.968750         0.0005
       33           0.031250   0.156250   0.031250         0.0005
       34           0.031250   0.156250   0.093750         0.0005
       35           0.031250   0.156250   0.156250         0.0005
       36           0.031250   0.156250   0.218750         0.0005
       37           0.031250   0.156250   0.281250         0.0005
       38           0.031250   0.156250   0.343750         0.0005
       39           0.031250   0.156250   0.406250         0.0005
       40           0.031250   0.156250   0.468750         0.0005
       41           0.031250   0.156250   0.531250         0.0005
       42           0.031250   0.156250   0.593750         0.0005
       43           0.031250   0.156250   0.656250         0.0005
       44           0.031250   0.156250   0.718750         0.0005
       45           0.031250   0.156250   0.781250         0.0005
       46           0.031250   0.156250   0.843750         0.0005
       47           0.031250   0.156250   0.906250         0.0005
       48           0.031250   0.156250   0.968750         0.0005
       49           0.031250   0.218750   0.031250         0.0005
       50           0.031250   0.218750   0.093750         0.0005
       51           0.031250   0.218750   0.156250         0.0005
       52           0.031250   0.218750   0.218750         0.0005
       53           0.031250   0.218750   0.281250         0.0005
       54           0.031250   0.218750   0.343750         0.0005
       55           0.031250   0.218750   0.406250         0.0005
       56           0.031250   0.218750   0.468750         0.0005
       57           0.031250   0.218750   0.531250         0.0005
       58           0.031250   0.218750   0.593750         0.0005
       59           0.031250   0.218750   0.656250         0.0005
       60           0.031250   0.218750   0.718750         0.0005
       61           0.031250   0.218750   0.781250         0.0005
       62           0.031250   0.218750   0.843750         0.0005
       63           0.031250   0.218750   0.906250         0.0005
       64           0.031250   0.218750   0.968750         0.0005
       65           0.031250   0.281250   0.031250         0.0005
       66           0.031250   0.281250   0.093750         0.0005
       67           0.031250   0.281250   0.156250         0.0005
       68           0.031250   0.281250   0.218750         0.0005
       69           0.031250   0.281250   0.281250         0.0005
       70           0.031250   0.281250   0.343750         0.0005
       71           0.031250   0.281250   0.406250         0.0005
       72           0.031250   0.281250   0.468750         0.0005
       73           0.031250   0.281250   0.531250         0.0005
       74           0.031250   0.281250   0.593750         0.0005
       75           0.031250   0.281250   0.656250         0.0005
       76           0.031250   0.281250   0.718750         0.0005
       77           0.031250   0.281250   0.781250         0.0005
       78           0.031250   0.281250   0.843750         0.0005
       79           0.031250   0.281250   0.906250         0.0005
       80           0.031250   0.281250   0.968750         0.0005
       81           0.031250   0.343750   0.031250         0.0005
       82           0.031250   0.343750   0.093750         0.0005
       83           0.031250   0.343750   0.156250         0.0005
       84           0.031250   0.343750   0.218750         0.0005
       85           0.031250   0.343750   0.281250         0.0005
       86           0.031250   0.343750   0.343750         0.0005
       87           0.031250   0.343750   0.406250         0.0005
       88           0.031250   0.343750   0.468750         0.0005
       89           0.031250   0.343750   0.531250         0.0005
       90           0.031250   0.343750   0.593750         0.0005
       91           0.031250   0.343750   0.656250         0.0005
       92           0.031250   0.343750   0.718750         0.0005
       93           0.031250   0.343750   0.781250         0.0005
       94           0.031250   0.343750   0.843750         0.0005
       95           0.031250   0.343750   0.906250         0.0005
       96           0.031250   0.343750   0.968750         0.0005
       97           0.031250   0.406250   0.031250         0.0005
       98           0.031250   0.406250   0.093750         0.0005
       99           0.031250   0.406250   0.156250         0.0005
      100           0.031250   0.406250   0.218750         0.0005
      101           0.031250   0.406250   0.281250         0.0005
      102           0.031250   0.406250   0.343750         0.0005
      103           0.031250   0.406250   0.406250         0.0005
      104           0.031250   0.406250   0.468750         0.0005
      105           0.031250   0.406250   0.531250         0.0005
      106           0.031250   0.406250   0.593750         0.0005
      107           0.031250   0.406250   0.656250         0.0005
      108           0.031250   0.406250   0.718750         0.0005
      109           0.031250   0.406250   0.781250         0.0005
      110           0.031250   0.406250   0.843750         0.0005
      111           0.031250   0.406250   0.906250         0.0005
      112           0.031250   0.406250   0.968750         0.0005
      113           0.031250   0.468750   0.031250         0.0005
      114           0.031250   0.468750   0.093750         0.0005
      115           0.031250   0.468750   0.156250         0.0005
      116           0.031250   0.468750   0.218750         0.0005
      117           0.031250   0.468750   0.281250         0.0005
      118           0.031250   0.468750   0.343750         0.0005
      119           0.031250   0.468750   0.406250         0.0005
      120           0.031250   0.468750   0.468750         0.0005
      121           0.031250   0.468750   0.531250         0.0005
      122           0.031250   0.468750   0.593750         0.0005
      123           0.031250   0.468750   0.656250         0.0005
      124           0.031250   0.468750   0.718750         0.0005
      125           0.031250   0.468750   0.781250         0.0005
      126           0.031250   0.468750   0.843750         0.0005
      127           0.031250   0.468750   0.906250         0.0005
      128           0.031250   0.468750   0.968750         0.0005
      129           0.031250   0.531250   0.031250         0.0005
      130           0.031250   0.531250   0.093750         0.0005
      131           0.031250   0.531250   0.156250         0.0005
      132           0.031250   0.531250   0.218750         0.0005
      133           0.031250   0.531250   0.281250         0.0005
      134           0.031250   0.531250   0.343750         0.0005
      135           0.031250   0.531250   0.406250         0.0005
      136           0.031250   0.531250   0.468750         0.0005
      137           0.031250   0.531250   0.531250         0.0005
      138           0.031250   0.531250   0.593750         0.0005
      139           0.031250   0.531250   0.656250         0.0005
      140           0.031250   0.531250   0.718750         0.0005
      141           0.031250   0.531250   0.781250         0.0005
      142           0.031250   0.531250   0.843750         0.0005
      143           0.031250   0.531250   0.906250         0.0005
      144           0.031250   0.531250   0.968750         0.0005
      145           0.031250   0.593750   0.031250         0.0005
      146           0.031250   0.593750   0.093750         0.0005
      147           0.031250   0.593750   0.156250         0.0005
      148           0.031250   0.593750   0.218750         0.0005
      149           0.031250   0.593750   0.281250         0.0005
      150           0.031250   0.593750   0.343750         0.0005
      151           0.031250   0.593750   0.406250         0.0005
      152           0.031250   0.593750   0.468750         0.0005
      153           0.031250   0.593750   0.531250         0.0005
      154           0.031250   0.593750   0.593750         0.0005
      155           0.031250   0.593750   0.656250         0.0005
      156           0.031250   0.593750   0.718750         0.0005
      157           0.031250   0.593750   0.781250         0.0005
      158           0.031250   0.593750   0.843750         0.0005
      159           0.031250   0.593750   0.906250         0.0005
      160           0.031250   0.593750   0.968750         0.0005
      161           0.031250   0.656250   0.031250         0.0005
      162           0.031250   0.656250   0.093750         0.0005
      163           0.031250   0.656250   0.156250         0.0005
      164           0.031250   0.656250   0.218750         0.0005
      165           0.031250   0.656250   0.281250         0.0005
      166           0.031250   0.656250   0.343750         0.0005
      167           0.031250   0.656250   0.406250         0.0005
      168           0.031250   0.656250   0.468750         0.0005
      169           0.031250   0.656250   0.531250         0.0005
      170           0.031250   0.656250   0.593750         0.0005
      171           0.031250   0.656250   0.656250         0.0005
      172           0.031250   0.656250   0.718750         0.0005
      173           0.031250   0.656250   0.781250         0.0005
      174           0.031250   0.656250   0.843750         0.0005
      175           0.031250   0.656250   0.906250         0.0005
      176           0.031250   0.656250   0.968750         0.0005
      177           0.031250   0.718750   0.031250         0.0005
      178           0.031250   0.718750   0.093750         0.0005
      179           0.031250   0.718750   0.156250         0.0005
      180           0.031250   0.718750   0.218750         0.0005
      181           0.031250   0.718750   0.281250         0.0005
      182           0.031250   0.718750   0.343750         0.0005
      183           0.031250   0.718750   0.406250         0.0005
      184           0.031250   0.718750   0.468750         0.0005
      185           0.031250   0.718750   0.531250         0.0005
      186           0.031250   0.718750   0.593750         0.0005
      187           0.031250   0.718750   0.656250         0.0005
      188           0.031250   0.718750   0.718750         0.0005
      189           0.031250   0.718750   0.781250         0.0005
      190           0.031250   0.718750   0.843750         0.0005
      191           0.031250   0.718750   0.906250         0.0005
      192           0.031250   0.718750   0.968750         0.0005
      193           0.031250   0.781250   0.031250         0.0005
      194           0.031250   0.781250   0.093750         0.0005
      195           0.031250   0.781250   0.156250         0.0005
      196           0.031250   0.781250   0.218750         0.0005
      197           0.031250   0.781250   0.281250         0.0005
      198           0.031250   0.781250   0.343750         0.0005
      199           0.031250   0.781250   0.406250         0.0005
      200           0.031250   0.781250   0.468750         0.0005
      201           0.031250   0.781250   0.531250         0.0005
      202           0.031250   0.781250   0.593750         0.0005
      203           0.031250   0.781250   0.656250         0.0005
      204           0.031250   0.781250   0.718750         0.0005
      205           0.031250   0.781250   0.781250         0.0005
      206           0.031250   0.781250   0.843750         0.0005
      207           0.031250   0.781250   0.906250         0.0005
      208           0.031250   0.781250   0.968750         0.0005
      209           0.031250   0.843750   0.031250         0.0005
      210           0.031250   0.843750   0.093750         0.0005
      211           0.031250   0.843750   0.156250         0.0005
      212           0.031250   0.843750   0.218750         0.0005
      213           0.031250   0.843750   0.281250         0.0005
      214           0.031250   0.843750   0.343750         0.0005
      215           0.031250   0.843750   0.406250         0.0005
      216           0.031250   0.843750   0.468750         0.0005
      217           0.031250   0.843750   0.531250         0.0005
      218           0.031250   0.843750   0.593750         0.0005
      219           0.031250   0.843750   0.656250         0.0005
      220           0.031250   0.843750   0.718750         0.0005
      221           0.031250   0.843750   0.781250         0.0005
      222           0.031250   0.843750   0.843750         0.0005
      223           0.031250   0.843750   0.906250         0.0005
      224           0.031250   0.843750   0.968750         0.0005
      225           0.031250   0.906250   0.031250         0.0005
      226           0.031250   0.906250   0.093750         0.0005
      227           0.031250   0.906250   0.156250         0.0005
      228           0.031250   0.906250   0.218750         0.0005
      229           0.031250   0.906250   0.281250         0.0005
      230           0.031250   0.906250   0.343750         0.0005
      231           0.031250   0.906250   0.406250         0.0005
      232           0.031250   0.906250   0.468750         0.0005
      233           0.031250   0.906250   0.531250         0.0005
      234           0.031250   0.906250   0.593750         0.0005
      235           0.031250   0.906250   0.656250         0.0005
      236           0.031250   0.906250   0.718750         0.0005
      237           0.031250   0.906250   0.781250         0.0005
      238           0.031250   0.906250   0.843750         0.0005
      239           0.031250   0.906250   0.906250         0.0005
      240           0.031250   0.906250   0.968750         0.0005
      241           0.031250   0.968750   0.031250         0.0005
      242           0.031250   0.968750   0.093750         0.0005
      243           0.031250   0.968750   0.156250         0.0005
      244           0.031250   0.968750   0.218750         0.0005
      245           0.031250   0.968750   0.281250         0.0005
      246           0.031250   0.968750   0.343750         0.0005
      247           0.031250   0.968750   0.406250         0.0005
      248           0.031250   0.968750   0.468750         0.0005
      249           0.031250   0.968750   0.531250         0.0005
      250           0.031250   0.968750   0.593750         0.0005
      251           0.031250   0.968750   0.656250         0.0005
      252           0.031250   0.968750   0.718750         0.0005
      253           0.031250   0.968750   0.781250         0.0005
      254           0.031250   0.968750   0.843750         0.0005
      255           0.031250   0.968750   0.906250         0.0005
      256           0.031250   0.968750   0.968750         0.0005
      257           0.093750   0.031250   0.031250         0.0005
      258           0.093750   0.031250   0.093750         0.0005
      259           0.093750   0.031250   0.156250         0.0005
      260           0.093750   0.031250   0.218750         0.0005
      261           0.093750   0.031250   0.281250         0.0005
      262           0.093750   0.031250   0.343750         0.0005
      263           0.093750   0.031250   0.406250         0.0005
      264           0.093750   0.031250   0.468750         0.0005
      265           0.093750   0.031250   0.531250         0.0005
      266           0.093750   0.031250   0.593750         0.0005
      267           0.093750   0.031250   0.656250         0.0005
      268           0.093750   0.031250   0.718750         0.0005
      269           0.093750   0.031250   0.781250         0.0005
      270           0.093750   0.031250   0.843750         0.0005
      271           0.093750   0.031250   0.906250         0.0005
      272           0.093750   0.031250   0.968750         0.0005
      273           0.093750   0.093750   0.031250         0.0005
      274           0.093750   0.093750   0.093750         0.0005
      275           0.093750   0.093750   0.156250         0.0005
      276           0.093750   0.093750   0.218750         0.0005
      277           0.093750   0.093750   0.281250         0.0005
      278           0.093750   0.093750   0.343750         0.0005
      279           0.093750   0.093750   0.406250         0.0005
      280           0.093750   0.093750   0.468750         0.0005
      281           0.093750   0.093750   0.531250         0.0005
      282           0.093750   0.093750   0.593750         0.0005
      283           0.093750   0.093750   0.656250         0.0005
      284           0.093750   0.093750   0.718750         0.0005
      285           0.093750   0.093750   0.781250         0.0005
      286           0.093750   0.093750   0.843750         0.0005
      287           0.093750   0.093750   0.906250         0.0005
      288           0.093750   0.093750   0.968750         0.0005
      289           0.093750   0.156250   0.031250         0.0005
      290           0.093750   0.156250   0.093750         0.0005
      291           0.093750   0.156250   0.156250         0.0005
      292           0.093750   0.156250   0.218750         0.0005
      293           0.093750   0.156250   0.281250         0.0005
      294           0.093750   0.156250   0.343750         0.0005
      295           0.093750   0.156250   0.406250         0.0005
      296           0.093750   0.156250   0.468750         0.0005
      297           0.093750   0.156250   0.531250         0.0005
      298           0.093750   0.156250   0.593750         0.0005
      299           0.093750   0.156250   0.656250         0.0005
      300           0.093750   0.156250   0.718750         0.0005
      301           0.093750   0.156250   0.781250         0.0005
      302           0.093750   0.156250   0.843750         0.0005
      303           0.093750   0.156250   0.906250         0.0005
      304           0.093750   0.156250   0.968750         0.0005
      305           0.093750   0.218750   0.031250         0.0005
      306           0.093750   0.218750   0.093750         0.0005
      307           0.093750   0.218750   0.156250         0.0005
      308           0.093750   0.218750   0.218750         0.0005
      309           0.093750   0.218750   0.281250         0.0005
      310           0.093750   0.218750   0.343750         0.0005
      311           0.093750   0.218750   0.406250         0.0005
      312           0.093750   0.218750   0.468750         0.0005
      313           0.093750   0.218750   0.531250         0.0005
      314           0.093750   0.218750   0.593750         0.0005
      315           0.093750   0.218750   0.656250         0.0005
      316           0.093750   0.218750   0.718750         0.0005
      317           0.093750   0.218750   0.781250         0.0005
      318           0.093750   0.218750   0.843750         0.0005
      319           0.093750   0.218750   0.906250         0.0005
      320           0.093750   0.218750   0.968750         0.0005
      321           0.093750   0.281250   0.031250         0.0005
      322           0.093750   0.281250   0.093750         0.0005
      323           0.093750   0.281250   0.156250         0.0005
      324           0.093750   0.281250   0.218750         0.0005
      325           0.093750   0.281250   0.281250         0.0005
      326           0.093750   0.281250   0.343750         0.0005
      327           0.093750   0.281250   0.406250         0.0005
      328           0.093750   0.281250   0.468750         0.0005
      329           0.093750   0.281250   0.531250         0.0005
      330           0.093750   0.281250   0.593750         0.0005
      331           0.093750   0.281250   0.656250         0.0005
      332           0.093750   0.281250   0.718750         0.0005
      333           0.093750   0.281250   0.781250         0.0005
      334           0.093750   0.281250   0.843750         0.0005
      335           0.093750   0.281250   0.906250         0.0005
      336           0.093750   0.281250   0.968750         0.0005
      337           0.093750   0.343750   0.031250         0.0005
      338           0.093750   0.343750   0.093750         0.0005
      339           0.093750   0.343750   0.156250         0.0005
      340           0.093750   0.343750   0.218750         0.0005
      341           0.093750   0.343750   0.281250         0.0005
      342           0.093750   0.343750   0.343750         0.0005
      343           0.093750   0.343750   0.406250         0.0005
      344           0.093750   0.343750   0.468750         0.0005
      345           0.093750   0.343750   0.531250         0.0005
      346           0.093750   0.343750   0.593750         0.0005
      347           0.093750   0.343750   0.656250         0.0005
      348           0.093750   0.343750   0.718750         0.0005
      349           0.093750   0.343750   0.781250         0.0005
      350           0.093750   0.343750   0.843750         0.0005
      351           0.093750   0.343750   0.906250         0.0005
      352           0.093750   0.343750   0.968750         0.0005
      353           0.093750   0.406250   0.031250         0.0005
      354           0.093750   0.406250   0.093750         0.0005
      355           0.093750   0.406250   0.156250         0.0005
      356           0.093750   0.406250   0.218750         0.0005
      357           0.093750   0.406250   0.281250         0.0005
      358           0.093750   0.406250   0.343750         0.0005
      359           0.093750   0.406250   0.406250         0.0005
      360           0.093750   0.406250   0.468750         0.0005
      361           0.093750   0.406250   0.531250         0.0005
      362           0.093750   0.406250   0.593750         0.0005
      363           0.093750   0.406250   0.656250         0.0005
      364           0.093750   0.406250   0.718750         0.0005
      365           0.093750   0.406250   0.781250         0.0005
      366           0.093750   0.406250   0.843750         0.0005
      367           0.093750   0.406250   0.906250         0.0005
      368           0.093750   0.406250   0.968750         0.0005
      369           0.093750   0.468750   0.031250         0.0005
      370           0.093750   0.468750   0.093750         0.0005
      371           0.093750   0.468750   0.156250         0.0005
      372           0.093750   0.468750   0.218750         0.0005
      373           0.093750   0.468750   0.281250         0.0005
      374           0.093750   0.468750   0.343750         0.0005
      375           0.093750   0.468750   0.406250         0.0005
      376           0.093750   0.468750   0.468750         0.0005
      377           0.093750   0.468750   0.531250         0.0005
      378           0.093750   0.468750   0.593750         0.0005
      379           0.093750   0.468750   0.656250         0.0005
      380           0.093750   0.468750   0.718750         0.0005
      381           0.093750   0.468750   0.781250         0.0005
      382           0.093750   0.468750   0.843750         0.0005
      383           0.093750   0.468750   0.906250         0.0005
      384           0.093750   0.468750   0.968750         0.0005
      385           0.093750   0.531250   0.031250         0.0005
      386           0.093750   0.531250   0.093750         0.0005
      387           0.093750   0.531250   0.156250         0.0005
      388           0.093750   0.531250   0.218750         0.0005
      389           0.093750   0.531250   0.281250         0.0005
      390           0.093750   0.531250   0.343750         0.0005
      391           0.093750   0.531250   0.406250         0.0005
      392           0.093750   0.531250   0.468750         0.0005
      393           0.093750   0.531250   0.531250         0.0005
      394           0.093750   0.531250   0.593750         0.0005
      395           0.093750   0.531250   0.656250         0.0005
      396           0.093750   0.531250   0.718750         0.0005
      397           0.093750   0.531250   0.781250         0.0005
      398           0.093750   0.531250   0.843750         0.0005
      399           0.093750   0.531250   0.906250         0.0005
      400           0.093750   0.531250   0.968750         0.0005
      401           0.093750   0.593750   0.031250         0.0005
      402           0.093750   0.593750   0.093750         0.0005
      403           0.093750   0.593750   0.156250         0.0005
      404           0.093750   0.593750   0.218750         0.0005
      405           0.093750   0.593750   0.281250         0.0005
      406           0.093750   0.593750   0.343750         0.0005
      407           0.093750   0.593750   0.406250         0.0005
      408           0.093750   0.593750   0.468750         0.0005
      409           0.093750   0.593750   0.531250         0.0005
      410           0.093750   0.593750   0.593750         0.0005
      411           0.093750   0.593750   0.656250         0.0005
      412           0.093750   0.593750   0.718750         0.0005
      413           0.093750   0.593750   0.781250         0.0005
      414           0.093750   0.593750   0.843750         0.0005
      415           0.093750   0.593750   0.906250         0.0005
      416           0.093750   0.593750   0.968750         0.0005
      417           0.093750   0.656250   0.031250         0.0005
      418           0.093750   0.656250   0.093750         0.0005
      419           0.093750   0.656250   0.156250         0.0005
      420           0.093750   0.656250   0.218750         0.0005
      421           0.093750   0.656250   0.281250         0.0005
      422           0.093750   0.656250   0.343750         0.0005
      423           0.093750   0.656250   0.406250         0.0005
      424           0.093750   0.656250   0.468750         0.0005
      425           0.093750   0.656250   0.531250         0.0005
      426           0.093750   0.656250   0.593750         0.0005
      427           0.093750   0.656250   0.656250         0.0005
      428           0.093750   0.656250   0.718750         0.0005
      429           0.093750   0.656250   0.781250         0.0005
      430           0.093750   0.656250   0.843750         0.0005
      431           0.093750   0.656250   0.906250         0.0005
      432           0.093750   0.656250   0.968750         0.0005
      433           0.093750   0.718750   0.031250         0.0005
      434           0.093750   0.718750   0.093750         0.0005
      435           0.093750   0.718750   0.156250         0.0005
      436           0.093750   0.718750   0.218750         0.0005
      437           0.093750   0.718750   0.281250         0.0005
      438           0.093750   0.718750   0.343750         0.0005
      439           0.093750   0.718750   0.406250         0.0005
      440           0.093750   0.718750   0.468750         0.0005
      441           0.093750   0.718750   0.531250         0.0005
      442           0.093750   0.718750   0.593750         0.0005
      443           0.093750   0.718750   0.656250         0.0005
      444           0.093750   0.718750   0.718750         0.0005
      445           0.093750   0.718750   0.781250         0.0005
      446           0.093750   0.718750   0.843750         0.0005
      447           0.093750   0.718750   0.906250         0.0005
      448           0.093750   0.718750   0.968750         0.0005
      449           0.093750   0.781250   0.031250         0.0005
      450           0.093750   0.781250   0.093750         0.0005
      451           0.093750   0.781250   0.156250         0.0005
      452           0.093750   0.781250   0.218750         0.0005
      453           0.093750   0.781250   0.281250         0.0005
      454           0.093750   0.781250   0.343750         0.0005
      455           0.093750   0.781250   0.406250         0.0005
      456           0.093750   0.781250   0.468750         0.0005
      457           0.093750   0.781250   0.531250         0.0005
      458           0.093750   0.781250   0.593750         0.0005
      459           0.093750   0.781250   0.656250         0.0005
      460           0.093750   0.781250   0.718750         0.0005
      461           0.093750   0.781250   0.781250         0.0005
      462           0.093750   0.781250   0.843750         0.0005
      463           0.093750   0.781250   0.906250         0.0005
      464           0.093750   0.781250   0.968750         0.0005
      465           0.093750   0.843750   0.031250         0.0005
      466           0.093750   0.843750   0.093750         0.0005
      467           0.093750   0.843750   0.156250         0.0005
      468           0.093750   0.843750   0.218750         0.0005
      469           0.093750   0.843750   0.281250         0.0005
      470           0.093750   0.843750   0.343750         0.0005
      471           0.093750   0.843750   0.406250         0.0005
      472           0.093750   0.843750   0.468750         0.0005
      473           0.093750   0.843750   0.531250         0.0005
      474           0.093750   0.843750   0.593750         0.0005
      475           0.093750   0.843750   0.656250         0.0005
      476           0.093750   0.843750   0.718750         0.0005
      477           0.093750   0.843750   0.781250         0.0005
      478           0.093750   0.843750   0.843750         0.0005
      479           0.093750   0.843750   0.906250         0.0005
      480           0.093750   0.843750   0.968750         0.0005
      481           0.093750   0.906250   0.031250         0.0005
      482           0.093750   0.906250   0.093750         0.0005
      483           0.093750   0.906250   0.156250         0.0005
      484           0.093750   0.906250   0.218750         0.0005
      485           0.093750   0.906250   0.281250         0.0005
      486           0.093750   0.906250   0.343750         0.0005
      487           0.093750   0.906250   0.406250         0.0005
      488           0.093750   0.906250   0.468750         0.0005
      489           0.093750   0.906250   0.531250         0.0005
      490           0.093750   0.906250   0.593750         0.0005
      491           0.093750   0.906250   0.656250         0.0005
      492           0.093750   0.906250   0.718750         0.0005
      493           0.093750   0.906250   0.781250         0.0005
      494           0.093750   0.906250   0.843750         0.0005
      495           0.093750   0.906250   0.906250         0.0005
      496           0.093750   0.906250   0.968750         0.0005
      497           0.093750   0.968750   0.031250         0.0005
      498           0.093750   0.968750   0.093750         0.0005
      499           0.093750   0.968750   0.156250         0.0005
      500           0.093750   0.968750   0.218750         0.0005
      501           0.093750   0.968750   0.281250         0.0005
      502           0.093750   0.968750   0.343750         0.0005
      503           0.093750   0.968750   0.406250         0.0005
      504           0.093750   0.968750   0.468750         0.0005
      505           0.093750   0.968750   0.531250         0.0005
      506           0.093750   0.968750   0.593750         0.0005
      507           0.093750   0.968750   0.656250         0.0005
      508           0.093750   0.968750   0.718750         0.0005
      509           0.093750   0.968750   0.781250         0.0005
      510           0.093750   0.968750   0.843750         0.0005
      511           0.093750   0.968750   0.906250         0.0005
      512           0.093750   0.968750   0.968750         0.0005
      513           0.156250   0.031250   0.031250         0.0005
      514           0.156250   0.031250   0.093750         0.0005
      515           0.156250   0.031250   0.156250         0.0005
      516           0.156250   0.031250   0.218750         0.0005
      517           0.156250   0.031250   0.281250         0.0005
      518           0.156250   0.031250   0.343750         0.0005
      519           0.156250   0.031250   0.406250         0.0005
      520           0.156250   0.031250   0.468750         0.0005
      521           0.156250   0.031250   0.531250         0.0005
      522           0.156250   0.031250   0.593750         0.0005
      523           0.156250   0.031250   0.656250         0.0005
      524           0.156250   0.031250   0.718750         0.0005
      525           0.156250   0.031250   0.781250         0.0005
      526           0.156250   0.031250   0.843750         0.0005
      527           0.156250   0.031250   0.906250         0.0005
      528           0.156250   0.031250   0.968750         0.0005
      529           0.156250   0.093750   0.031250         0.0005
      530           0.156250   0.093750   0.093750         0.0005
      531           0.156250   0.093750   0.156250         0.0005
      532           0.156250   0.093750   0.218750         0.0005
      533           0.156250   0.093750   0.281250         0.0005
      534           0.156250   0.093750   0.343750         0.0005
      535           0.156250   0.093750   0.406250         0.0005
      536           0.156250   0.093750   0.468750         0.0005
      537           0.156250   0.093750   0.531250         0.0005
      538           0.156250   0.093750   0.593750         0.0005
      539           0.156250   0.093750   0.656250         0.0005
      540           0.156250   0.093750   0.718750         0.0005
      541           0.156250   0.093750   0.781250         0.0005
      542           0.156250   0.093750   0.843750         0.0005
      543           0.156250   0.093750   0.906250         0.0005
      544           0.156250   0.093750   0.968750         0.0005
      545           0.156250   0.156250   0.031250         0.0005
      546           0.156250   0.156250   0.093750         0.0005
      547           0.156250   0.156250   0.156250         0.0005
      548           0.156250   0.156250   0.218750         0.0005
      549           0.156250   0.156250   0.281250         0.0005
      550           0.156250   0.156250   0.343750         0.0005
      551           0.156250   0.156250   0.406250         0.0005
      552           0.156250   0.156250   0.468750         0.0005
      553           0.156250   0.156250   0.531250         0.0005
      554           0.156250   0.156250   0.593750         0.0005
      555           0.156250   0.156250   0.656250         0.0005
      556           0.156250   0.156250   0.718750         0.0005
      557           0.156250   0.156250   0.781250         0.0005
      558           0.156250   0.156250   0.843750         0.0005
      559           0.156250   0.156250   0.906250         0.0005
      560           0.156250   0.156250   0.968750         0.0005
      561           0.156250   0.218750   0.031250         0.0005
      562           0.156250   0.218750   0.093750         0.0005
      563           0.156250   0.218750   0.156250         0.0005
      564           0.156250   0.218750   0.218750         0.0005
      565           0.156250   0.218750   0.281250         0.0005
      566           0.156250   0.218750   0.343750         0.0005
      567           0.156250   0.218750   0.406250         0.0005
      568           0.156250   0.218750   0.468750         0.0005
      569           0.156250   0.218750   0.531250         0.0005
      570           0.156250   0.218750   0.593750         0.0005
      571           0.156250   0.218750   0.656250         0.0005
      572           0.156250   0.218750   0.718750         0.0005
      573           0.156250   0.218750   0.781250         0.0005
      574           0.156250   0.218750   0.843750         0.0005
      575           0.156250   0.218750   0.906250         0.0005
      576           0.156250   0.218750   0.968750         0.0005
      577           0.156250   0.281250   0.031250         0.0005
      578           0.156250   0.281250   0.093750         0.0005
      579           0.156250   0.281250   0.156250         0.0005
      580           0.156250   0.281250   0.218750         0.0005
      581           0.156250   0.281250   0.281250         0.0005
      582           0.156250   0.281250   0.343750         0.0005
      583           0.156250   0.281250   0.406250         0.0005
      584           0.156250   0.281250   0.468750         0.0005
      585           0.156250   0.281250   0.531250         0.0005
      586           0.156250   0.281250   0.593750         0.0005
      587           0.156250   0.281250   0.656250         0.0005
      588           0.156250   0.281250   0.718750         0.0005
      589           0.156250   0.281250   0.781250         0.0005
      590           0.156250   0.281250   0.843750         0.0005
      591           0.156250   0.281250   0.906250         0.0005
      592           0.156250   0.281250   0.968750         0.0005
      593           0.156250   0.343750   0.031250         0.0005
      594           0.156250   0.343750   0.093750         0.0005
      595           0.156250   0.343750   0.156250         0.0005
      596           0.156250   0.343750   0.218750         0.0005
      597           0.156250   0.343750   0.281250         0.0005
      598           0.156250   0.343750   0.343750         0.0005
      599           0.156250   0.343750   0.406250         0.0005
      600           0.156250   0.343750   0.468750         0.0005
      601           0.156250   0.343750   0.531250         0.0005
      602           0.156250   0.343750   0.593750         0.0005
      603           0.156250   0.343750   0.656250         0.0005
      604           0.156250   0.343750   0.718750         0.0005
      605           0.156250   0.343750   0.781250         0.0005
      606           0.156250   0.343750   0.843750         0.0005
      607           0.156250   0.343750   0.906250         0.0005
      608           0.156250   0.343750   0.968750         0.0005
      609           0.156250   0.406250   0.031250         0.0005
      610           0.156250   0.406250   0.093750         0.0005
      611           0.156250   0.406250   0.156250         0.0005
      612           0.156250   0.406250   0.218750         0.0005
      613           0.156250   0.406250   0.281250         0.0005
      614           0.156250   0.406250   0.343750         0.0005
      615           0.156250   0.406250   0.406250         0.0005
      616           0.156250   0.406250   0.468750         0.0005
      617           0.156250   0.406250   0.531250         0.0005
      618           0.156250   0.406250   0.593750         0.0005
      619           0.156250   0.406250   0.656250         0.0005
      620           0.156250   0.406250   0.718750         0.0005
      621           0.156250   0.406250   0.781250         0.0005
      622           0.156250   0.406250   0.843750         0.0005
      623           0.156250   0.406250   0.906250         0.0005
      624           0.156250   0.406250   0.968750         0.0005
      625           0.156250   0.468750   0.031250         0.0005
      626           0.156250   0.468750   0.093750         0.0005
      627           0.156250   0.468750   0.156250         0.0005
      628           0.156250   0.468750   0.218750         0.0005
      629           0.156250   0.468750   0.281250         0.0005
      630           0.156250   0.468750   0.343750         0.0005
      631           0.156250   0.468750   0.406250         0.0005
      632           0.156250   0.468750   0.468750         0.0005
      633           0.156250   0.468750   0.531250         0.0005
      634           0.156250   0.468750   0.593750         0.0005
      635           0.156250   0.468750   0.656250         0.0005
      636           0.156250   0.468750   0.718750         0.0005
      637           0.156250   0.468750   0.781250         0.0005
      638           0.156250   0.468750   0.843750         0.0005
      639           0.156250   0.468750   0.906250         0.0005
      640           0.156250   0.468750   0.968750         0.0005
      641           0.156250   0.531250   0.031250         0.0005
      642           0.156250   0.531250   0.093750         0.0005
      643           0.156250   0.531250   0.156250         0.0005
      644           0.156250   0.531250   0.218750         0.0005
      645           0.156250   0.531250   0.281250         0.0005
      646           0.156250   0.531250   0.343750         0.0005
      647           0.156250   0.531250   0.406250         0.0005
      648           0.156250   0.531250   0.468750         0.0005
      649           0.156250   0.531250   0.531250         0.0005
      650           0.156250   0.531250   0.593750         0.0005
      651           0.156250   0.531250   0.656250         0.0005
      652           0.156250   0.531250   0.718750         0.0005
      653           0.156250   0.531250   0.781250         0.0005
      654           0.156250   0.531250   0.843750         0.0005
      655           0.156250   0.531250   0.906250         0.0005
      656           0.156250   0.531250   0.968750         0.0005
      657           0.156250   0.593750   0.031250         0.0005
      658           0.156250   0.593750   0.093750         0.0005
      659           0.156250   0.593750   0.156250         0.0005
      660           0.156250   0.593750   0.218750         0.0005
      661           0.156250   0.593750   0.281250         0.0005
      662           0.156250   0.593750   0.343750         0.0005
      663           0.156250   0.593750   0.406250         0.0005
      664           0.156250   0.593750   0.468750         0.0005
      665           0.156250   0.593750   0.531250         0.0005
      666           0.156250   0.593750   0.593750         0.0005
      667           0.156250   0.593750   0.656250         0.0005
      668           0.156250   0.593750   0.718750         0.0005
      669           0.156250   0.593750   0.781250         0.0005
      670           0.156250   0.593750   0.843750         0.0005
      671           0.156250   0.593750   0.906250         0.0005
      672           0.156250   0.593750   0.968750         0.0005
      673           0.156250   0.656250   0.031250         0.0005
      674           0.156250   0.656250   0.093750         0.0005
      675           0.156250   0.656250   0.156250         0.0005
      676           0.156250   0.656250   0.218750         0.0005
      677           0.156250   0.656250   0.281250         0.0005
      678           0.156250   0.656250   0.343750         0.0005
      679           0.156250   0.656250   0.406250         0.0005
      680           0.156250   0.656250   0.468750         0.0005
      681           0.156250   0.656250   0.531250         0.0005
      682           0.156250   0.656250   0.593750         0.0005
      683           0.156250   0.656250   0.656250         0.0005
      684           0.156250   0.656250   0.718750         0.0005
      685           0.156250   0.656250   0.781250         0.0005
      686           0.156250   0.656250   0.843750         0.0005
      687           0.156250   0.656250   0.906250         0.0005
      688           0.156250   0.656250   0.968750         0.0005
      689           0.156250   0.718750   0.031250         0.0005
      690           0.156250   0.718750   0.093750         0.0005
      691           0.156250   0.718750   0.156250         0.0005
      692           0.156250   0.718750   0.218750         0.0005
      693           0.156250   0.718750   0.281250         0.0005
      694           0.156250   0.718750   0.343750         0.0005
      695           0.156250   0.718750   0.406250         0.0005
      696           0.156250   0.718750   0.468750         0.0005
      697           0.156250   0.718750   0.531250         0.0005
      698           0.156250   0.718750   0.593750         0.0005
      699           0.156250   0.718750   0.656250         0.0005
      700           0.156250   0.718750   0.718750         0.0005
      701           0.156250   0.718750   0.781250         0.0005
      702           0.156250   0.718750   0.843750         0.0005
      703           0.156250   0.718750   0.906250         0.0005
      704           0.156250   0.718750   0.968750         0.0005
      705           0.156250   0.781250   0.031250         0.0005
      706           0.156250   0.781250   0.093750         0.0005
      707           0.156250   0.781250   0.156250         0.0005
      708           0.156250   0.781250   0.218750         0.0005
      709           0.156250   0.781250   0.281250         0.0005
      710           0.156250   0.781250   0.343750         0.0005
      711           0.156250   0.781250   0.406250         0.0005
      712           0.156250   0.781250   0.468750         0.0005
      713           0.156250   0.781250   0.531250         0.0005
      714           0.156250   0.781250   0.593750         0.0005
      715           0.156250   0.781250   0.656250         0.0005
      716           0.156250   0.781250   0.718750         0.0005
      717           0.156250   0.781250   0.781250         0.0005
      718           0.156250   0.781250   0.843750         0.0005
      719           0.156250   0.781250   0.906250         0.0005
      720           0.156250   0.781250   0.968750         0.0005
      721           0.156250   0.843750   0.031250         0.0005
      722           0.156250   0.843750   0.093750         0.0005
      723           0.156250   0.843750   0.156250         0.0005
      724           0.156250   0.843750   0.218750         0.0005
      725           0.156250   0.843750   0.281250         0.0005
      726           0.156250   0.843750   0.343750         0.0005
      727           0.156250   0.843750   0.406250         0.0005
      728           0.156250   0.843750   0.468750         0.0005
      729           0.156250   0.843750   0.531250         0.0005
      730           0.156250   0.843750   0.593750         0.0005
      731           0.156250   0.843750   0.656250         0.0005
      732           0.156250   0.843750   0.718750         0.0005
      733           0.156250   0.843750   0.781250         0.0005
      734           0.156250   0.843750   0.843750         0.0005
      735           0.156250   0.843750   0.906250         0.0005
      736           0.156250   0.843750   0.968750         0.0005
      737           0.156250   0.906250   0.031250         0.0005
      738           0.156250   0.906250   0.093750         0.0005
      739           0.156250   0.906250   0.156250         0.0005
      740           0.156250   0.906250   0.218750         0.0005
      741           0.156250   0.906250   0.281250         0.0005
      742           0.156250   0.906250   0.343750         0.0005
      743           0.156250   0.906250   0.406250         0.0005
      744           0.156250   0.906250   0.468750         0.0005
      745           0.156250   0.906250   0.531250         0.0005
      746           0.156250   0.906250   0.593750         0.0005
      747           0.156250   0.906250   0.656250         0.0005
      748           0.156250   0.906250   0.718750         0.0005
      749           0.156250   0.906250   0.781250         0.0005
      750           0.156250   0.906250   0.843750         0.0005
      751           0.156250   0.906250   0.906250         0.0005
      752           0.156250   0.906250   0.968750         0.0005
      753           0.156250   0.968750   0.031250         0.0005
      754           0.156250   0.968750   0.093750         0.0005
      755           0.156250   0.968750   0.156250         0.0005
      756           0.156250   0.968750   0.218750         0.0005
      757           0.156250   0.968750   0.281250         0.0005
      758           0.156250   0.968750   0.343750         0.0005
      759           0.156250   0.968750   0.406250         0.0005
      760           0.156250   0.968750   0.468750         0.0005
      761           0.156250   0.968750   0.531250         0.0005
      762           0.156250   0.968750   0.593750         0.0005
      763           0.156250   0.968750   0.656250         0.0005
      764           0.156250   0.968750   0.718750         0.0005
      765           0.156250   0.968750   0.781250         0.0005
      766           0.156250   0.968750   0.843750         0.0005
      767           0.156250   0.968750   0.906250         0.0005
      768           0.156250   0.968750   0.968750         0.0005
      769           0.218750   0.031250   0.031250         0.0005
      770           0.218750   0.031250   0.093750         0.0005
      771           0.218750   0.031250   0.156250         0.0005
      772           0.218750   0.031250   0.218750         0.0005
      773           0.218750   0.031250   0.281250         0.0005
      774           0.218750   0.031250   0.343750         0.0005
      775           0.218750   0.031250   0.406250         0.0005
      776           0.218750   0.031250   0.468750         0.0005
      777           0.218750   0.031250   0.531250         0.0005
      778           0.218750   0.031250   0.593750         0.0005
      779           0.218750   0.031250   0.656250         0.0005
      780           0.218750   0.031250   0.718750         0.0005
      781           0.218750   0.031250   0.781250         0.0005
      782           0.218750   0.031250   0.843750         0.0005
      783           0.218750   0.031250   0.906250         0.0005
      784           0.218750   0.031250   0.968750         0.0005
      785           0.218750   0.093750   0.031250         0.0005
      786           0.218750   0.093750   0.093750         0.0005
      787           0.218750   0.093750   0.156250         0.0005
      788           0.218750   0.093750   0.218750         0.0005
      789           0.218750   0.093750   0.281250         0.0005
      790           0.218750   0.093750   0.343750         0.0005
      791           0.218750   0.093750   0.406250         0.0005
      792           0.218750   0.093750   0.468750         0.0005
      793           0.218750   0.093750   0.531250         0.0005
      794           0.218750   0.093750   0.593750         0.0005
      795           0.218750   0.093750   0.656250         0.0005
      796           0.218750   0.093750   0.718750         0.0005
      797           0.218750   0.093750   0.781250         0.0005
      798           0.218750   0.093750   0.843750         0.0005
      799           0.218750   0.093750   0.906250         0.0005
      800           0.218750   0.093750   0.968750         0.0005
      801           0.218750   0.156250   0.031250         0.0005
      802           0.218750   0.156250   0.093750         0.0005
      803           0.218750   0.156250   0.156250         0.0005
      804           0.218750   0.156250   0.218750         0.0005
      805           0.218750   0.156250   0.281250         0.0005
      806           0.218750   0.156250   0.343750         0.0005
      807           0.218750   0.156250   0.406250         0.0005
      808           0.218750   0.156250   0.468750         0.0005
      809           0.218750   0.156250   0.531250         0.0005
      810           0.218750   0.156250   0.593750         0.0005
      811           0.218750   0.156250   0.656250         0.0005
      812           0.218750   0.156250   0.718750         0.0005
      813           0.218750   0.156250   0.781250         0.0005
      814           0.218750   0.156250   0.843750         0.0005
      815           0.218750   0.156250   0.906250         0.0005
      816           0.218750   0.156250   0.968750         0.0005
      817           0.218750   0.218750   0.031250         0.0005
      818           0.218750   0.218750   0.093750         0.0005
      819           0.218750   0.218750   0.156250         0.0005
      820           0.218750   0.218750   0.218750         0.0005
      821           0.218750   0.218750   0.281250         0.0005
      822           0.218750   0.218750   0.343750         0.0005
      823           0.218750   0.218750   0.406250         0.0005
      824           0.218750   0.218750   0.468750         0.0005
      825           0.218750   0.218750   0.531250         0.0005
      826           0.218750   0.218750   0.593750         0.0005
      827           0.218750   0.218750   0.656250         0.0005
      828           0.218750   0.218750   0.718750         0.0005
      829           0.218750   0.218750   0.781250         0.0005
      830           0.218750   0.218750   0.843750         0.0005
      831           0.218750   0.218750   0.906250         0.0005
      832           0.218750   0.218750   0.968750         0.0005
      833           0.218750   0.281250   0.031250         0.0005
      834           0.218750   0.281250   0.093750         0.0005
      835           0.218750   0.281250   0.156250         0.0005
      836           0.218750   0.281250   0.218750         0.0005
      837           0.218750   0.281250   0.281250         0.0005
      838           0.218750   0.281250   0.343750         0.0005
      839           0.218750   0.281250   0.406250         0.0005
      840           0.218750   0.281250   0.468750         0.0005
      841           0.218750   0.281250   0.531250         0.0005
      842           0.218750   0.281250   0.593750         0.0005
      843           0.218750   0.281250   0.656250         0.0005
      844           0.218750   0.281250   0.718750         0.0005
      845           0.218750   0.281250   0.781250         0.0005
      846           0.218750   0.281250   0.843750         0.0005
      847           0.218750   0.281250   0.906250         0.0005
      848           0.218750   0.281250   0.968750         0.0005
      849           0.218750   0.343750   0.031250         0.0005
      850           0.218750   0.343750   0.093750         0.0005
      851           0.218750   0.343750   0.156250         0.0005
      852           0.218750   0.343750   0.218750         0.0005
      853           0.218750   0.343750   0.281250         0.0005
      854           0.218750   0.343750   0.343750         0.0005
      855           0.218750   0.343750   0.406250         0.0005
      856           0.218750   0.343750   0.468750         0.0005
      857           0.218750   0.343750   0.531250         0.0005
      858           0.218750   0.343750   0.593750         0.0005
      859           0.218750   0.343750   0.656250         0.0005
      860           0.218750   0.343750   0.718750         0.0005
      861           0.218750   0.343750   0.781250         0.0005
      862           0.218750   0.343750   0.843750         0.0005
      863           0.218750   0.343750   0.906250         0.0005
      864           0.218750   0.343750   0.968750         0.0005
      865           0.218750   0.406250   0.031250         0.0005
      866           0.218750   0.406250   0.093750         0.0005
      867           0.218750   0.406250   0.156250         0.0005
      868           0.218750   0.406250   0.218750         0.0005
      869           0.218750   0.406250   0.281250         0.0005
      870           0.218750   0.406250   0.343750         0.0005
      871           0.218750   0.406250   0.406250         0.0005
      872           0.218750   0.406250   0.468750         0.0005
      873           0.218750   0.406250   0.531250         0.0005
      874           0.218750   0.406250   0.593750         0.0005
      875           0.218750   0.406250   0.656250         0.0005
      876           0.218750   0.406250   0.718750         0.0005
      877           0.218750   0.406250   0.781250         0.0005
      878           0.218750   0.406250   0.843750         0.0005
      879           0.218750   0.406250   0.906250         0.0005
      880           0.218750   0.406250   0.968750         0.0005
      881           0.218750   0.468750   0.031250         0.0005
      882           0.218750   0.468750   0.093750         0.0005
      883           0.218750   0.468750   0.156250         0.0005
      884           0.218750   0.468750   0.218750         0.0005
      885           0.218750   0.468750   0.281250         0.0005
      886           0.218750   0.468750   0.343750         0.0005
      887           0.218750   0.468750   0.406250         0.0005
      888           0.218750   0.468750   0.468750         0.0005
      889           0.218750   0.468750   0.531250         0.0005
      890           0.218750   0.468750   0.593750         0.0005
      891           0.218750   0.468750   0.656250         0.0005
      892           0.218750   0.468750   0.718750         0.0005
      893           0.218750   0.468750   0.781250         0.0005
      894           0.218750   0.468750   0.843750         0.0005
      895           0.218750   0.468750   0.906250         0.0005
      896           0.218750   0.468750   0.968750         0.0005
      897           0.218750   0.531250   0.031250         0.0005
      898           0.218750   0.531250   0.093750         0.0005
      899           0.218750   0.531250   0.156250         0.0005
      900           0.218750   0.531250   0.218750         0.0005
      901           0.218750   0.531250   0.281250         0.0005
      902           0.218750   0.531250   0.343750         0.0005
      903           0.218750   0.531250   0.406250         0.0005
      904           0.218750   0.531250   0.468750         0.0005
      905           0.218750   0.531250   0.531250         0.0005
      906           0.218750   0.531250   0.593750         0.0005
      907           0.218750   0.531250   0.656250         0.0005
      908           0.218750   0.531250   0.718750         0.0005
      909           0.218750   0.531250   0.781250         0.0005
      910           0.218750   0.531250   0.843750         0.0005
      911           0.218750   0.531250   0.906250         0.0005
      912           0.218750   0.531250   0.968750         0.0005
      913           0.218750   0.593750   0.031250         0.0005
      914           0.218750   0.593750   0.093750         0.0005
      915           0.218750   0.593750   0.156250         0.0005
      916           0.218750   0.593750   0.218750         0.0005
      917           0.218750   0.593750   0.281250         0.0005
      918           0.218750   0.593750   0.343750         0.0005
      919           0.218750   0.593750   0.406250         0.0005
      920           0.218750   0.593750   0.468750         0.0005
      921           0.218750   0.593750   0.531250         0.0005
      922           0.218750   0.593750   0.593750         0.0005
      923           0.218750   0.593750   0.656250         0.0005
      924           0.218750   0.593750   0.718750         0.0005
      925           0.218750   0.593750   0.781250         0.0005
      926           0.218750   0.593750   0.843750         0.0005
      927           0.218750   0.593750   0.906250         0.0005
      928           0.218750   0.593750   0.968750         0.0005
      929           0.218750   0.656250   0.031250         0.0005
      930           0.218750   0.656250   0.093750         0.0005
      931           0.218750   0.656250   0.156250         0.0005
      932           0.218750   0.656250   0.218750         0.0005
      933           0.218750   0.656250   0.281250         0.0005
      934           0.218750   0.656250   0.343750         0.0005
      935           0.218750   0.656250   0.406250         0.0005
      936           0.218750   0.656250   0.468750         0.0005
      937           0.218750   0.656250   0.531250         0.0005
      938           0.218750   0.656250   0.593750         0.0005
      939           0.218750   0.656250   0.656250         0.0005
      940           0.218750   0.656250   0.718750         0.0005
      941           0.218750   0.656250   0.781250         0.0005
      942           0.218750   0.656250   0.843750         0.0005
      943           0.218750   0.656250   0.906250         0.0005
      944           0.218750   0.656250   0.968750         0.0005
      945           0.218750   0.718750   0.031250         0.0005
      946           0.218750   0.718750   0.093750         0.0005
      947           0.218750   0.718750   0.156250         0.0005
      948           0.218750   0.718750   0.218750         0.0005
      949           0.218750   0.718750   0.281250         0.0005
      950           0.218750   0.718750   0.343750         0.0005
      951           0.218750   0.718750   0.406250         0.0005
      952           0.218750   0.718750   0.468750         0.0005
      953           0.218750   0.718750   0.531250         0.0005
      954           0.218750   0.718750   0.593750         0.0005
      955           0.218750   0.718750   0.656250         0.0005
      956           0.218750   0.718750   0.718750         0.0005
      957           0.218750   0.718750   0.781250         0.0005
      958           0.218750   0.718750   0.843750         0.0005
      959           0.218750   0.718750   0.906250         0.0005
      960           0.218750   0.718750   0.968750         0.0005
      961           0.218750   0.781250   0.031250         0.0005
      962           0.218750   0.781250   0.093750         0.0005
      963           0.218750   0.781250   0.156250         0.0005
      964           0.218750   0.781250   0.218750         0.0005
      965           0.218750   0.781250   0.281250         0.0005
      966           0.218750   0.781250   0.343750         0.0005
      967           0.218750   0.781250   0.406250         0.0005
      968           0.218750   0.781250   0.468750         0.0005
      969           0.218750   0.781250   0.531250         0.0005
      970           0.218750   0.781250   0.593750         0.0005
      971           0.218750   0.781250   0.656250         0.0005
      972           0.218750   0.781250   0.718750         0.0005
      973           0.218750   0.781250   0.781250         0.0005
      974           0.218750   0.781250   0.843750         0.0005
      975           0.218750   0.781250   0.906250         0.0005
      976           0.218750   0.781250   0.968750         0.0005
      977           0.218750   0.843750   0.031250         0.0005
      978           0.218750   0.843750   0.093750         0.0005
      979           0.218750   0.843750   0.156250         0.0005
      980           0.218750   0.843750   0.218750         0.0005
      981           0.218750   0.843750   0.281250         0.0005
      982           0.218750   0.843750   0.343750         0.0005
      983           0.218750   0.843750   0.406250         0.0005
      984           0.218750   0.843750   0.468750         0.0005
      985           0.218750   0.843750   0.531250         0.0005
      986           0.218750   0.843750   0.593750         0.0005
      987           0.218750   0.843750   0.656250         0.0005
      988           0.218750   0.843750   0.718750         0.0005
      989           0.218750   0.843750   0.781250         0.0005
      990           0.218750   0.843750   0.843750         0.0005
      991           0.218750   0.843750   0.906250         0.0005
      992           0.218750   0.843750   0.968750         0.0005
      993           0.218750   0.906250   0.031250         0.0005
      994           0.218750   0.906250   0.093750         0.0005
      995           0.218750   0.906250   0.156250         0.0005
      996           0.218750   0.906250   0.218750         0.0005
      997           0.218750   0.906250   0.281250         0.0005
      998           0.218750   0.906250   0.343750         0.0005
      999           0.218750   0.906250   0.406250         0.0005
     1000           0.218750   0.906250   0.468750         0.0005
     1001           0.218750   0.906250   0.531250         0.0005
     1002           0.218750   0.906250   0.593750         0.0005
     1003           0.218750   0.906250   0.656250         0.0005
     1004           0.218750   0.906250   0.718750         0.0005
     1005           0.218750   0.906250   0.781250         0.0005
     1006           0.218750   0.906250   0.843750         0.0005
     1007           0.218750   0.906250   0.906250         0.0005
     1008           0.218750   0.906250   0.968750         0.0005
     1009           0.218750   0.968750   0.031250         0.0005
     1010           0.218750   0.968750   0.093750         0.0005
     1011           0.218750   0.968750   0.156250         0.0005
     1012           0.218750   0.968750   0.218750         0.0005
     1013           0.218750   0.968750   0.281250         0.0005
     1014           0.218750   0.968750   0.343750         0.0005
     1015           0.218750   0.968750   0.406250         0.0005
     1016           0.218750   0.968750   0.468750         0.0005
     1017           0.218750   0.968750   0.531250         0.0005
     1018           0.218750   0.968750   0.593750         0.0005
     1019           0.218750   0.968750   0.656250         0.0005
     1020           0.218750   0.968750   0.718750         0.0005
     1021           0.218750   0.968750   0.781250         0.0005
     1022           0.218750   0.968750   0.843750         0.0005
     1023           0.218750   0.968750   0.906250         0.0005
     1024           0.218750   0.968750   0.968750         0.0005
     1025           0.281250   0.031250   0.031250         0.0005
     1026           0.281250   0.031250   0.093750         0.0005
     1027           0.281250   0.031250   0.156250         0.0005
     1028           0.281250   0.031250   0.218750         0.0005
     1029           0.281250   0.031250   0.281250         0.0005
     1030           0.281250   0.031250   0.343750         0.0005
     1031           0.281250   0.031250   0.406250         0.0005
     1032           0.281250   0.031250   0.468750         0.0005
     1033           0.281250   0.031250   0.531250         0.0005
     1034           0.281250   0.031250   0.593750         0.0005
     1035           0.281250   0.031250   0.656250         0.0005
     1036           0.281250   0.031250   0.718750         0.0005
     1037           0.281250   0.031250   0.781250         0.0005
     1038           0.281250   0.031250   0.843750         0.0005
     1039           0.281250   0.031250   0.906250         0.0005
     1040           0.281250   0.031250   0.968750         0.0005
     1041           0.281250   0.093750   0.031250         0.0005
     1042           0.281250   0.093750   0.093750         0.0005
     1043           0.281250   0.093750   0.156250         0.0005
     1044           0.281250   0.093750   0.218750         0.0005
     1045           0.281250   0.093750   0.281250         0.0005
     1046           0.281250   0.093750   0.343750         0.0005
     1047           0.281250   0.093750   0.406250         0.0005
     1048           0.281250   0.093750   0.468750         0.0005
     1049           0.281250   0.093750   0.531250         0.0005
     1050           0.281250   0.093750   0.593750         0.0005
     1051           0.281250   0.093750   0.656250         0.0005
     1052           0.281250   0.093750   0.718750         0.0005
     1053           0.281250   0.093750   0.781250         0.0005
     1054           0.281250   0.093750   0.843750         0.0005
     1055           0.281250   0.093750   0.906250         0.0005
     1056           0.281250   0.093750   0.968750         0.0005
     1057           0.281250   0.156250   0.031250         0.0005
     1058           0.281250   0.156250   0.093750         0.0005
     1059           0.281250   0.156250   0.156250         0.0005
     1060           0.281250   0.156250   0.218750         0.0005
     1061           0.281250   0.156250   0.281250         0.0005
     1062           0.281250   0.156250   0.343750         0.0005
     1063           0.281250   0.156250   0.406250         0.0005
     1064           0.281250   0.156250   0.468750         0.0005
     1065           0.281250   0.156250   0.531250         0.0005
     1066           0.281250   0.156250   0.593750         0.0005
     1067           0.281250   0.156250   0.656250         0.0005
     1068           0.281250   0.156250   0.718750         0.0005
     1069           0.281250   0.156250   0.781250         0.0005
     1070           0.281250   0.156250   0.843750         0.0005
     1071           0.281250   0.156250   0.906250         0.0005
     1072           0.281250   0.156250   0.968750         0.0005
     1073           0.281250   0.218750   0.031250         0.0005
     1074           0.281250   0.218750   0.093750         0.0005
     1075           0.281250   0.218750   0.156250         0.0005
     1076           0.281250   0.218750   0.218750         0.0005
     1077           0.281250   0.218750   0.281250         0.0005
     1078           0.281250   0.218750   0.343750         0.0005
     1079           0.281250   0.218750   0.406250         0.0005
     1080           0.281250   0.218750   0.468750         0.0005
     1081           0.281250   0.218750   0.531250         0.0005
     1082           0.281250   0.218750   0.593750         0.0005
     1083           0.281250   0.218750   0.656250         0.0005
     1084           0.281250   0.218750   0.718750         0.0005
     1085           0.281250   0.218750   0.781250         0.0005
     1086           0.281250   0.218750   0.843750         0.0005
     1087           0.281250   0.218750   0.906250         0.0005
     1088           0.281250   0.218750   0.968750         0.0005
     1089           0.281250   0.281250   0.031250         0.0005
     1090           0.281250   0.281250   0.093750         0.0005
     1091           0.281250   0.281250   0.156250         0.0005
     1092           0.281250   0.281250   0.218750         0.0005
     1093           0.281250   0.281250   0.281250         0.0005
     1094           0.281250   0.281250   0.343750         0.0005
     1095           0.281250   0.281250   0.406250         0.0005
     1096           0.281250   0.281250   0.468750         0.0005
     1097           0.281250   0.281250   0.531250         0.0005
     1098           0.281250   0.281250   0.593750         0.0005
     1099           0.281250   0.281250   0.656250         0.0005
     1100           0.281250   0.281250   0.718750         0.0005
     1101           0.281250   0.281250   0.781250         0.0005
     1102           0.281250   0.281250   0.843750         0.0005
     1103           0.281250   0.281250   0.906250         0.0005
     1104           0.281250   0.281250   0.968750         0.0005
     1105           0.281250   0.343750   0.031250         0.0005
     1106           0.281250   0.343750   0.093750         0.0005
     1107           0.281250   0.343750   0.156250         0.0005
     1108           0.281250   0.343750   0.218750         0.0005
     1109           0.281250   0.343750   0.281250         0.0005
     1110           0.281250   0.343750   0.343750         0.0005
     1111           0.281250   0.343750   0.406250         0.0005
     1112           0.281250   0.343750   0.468750         0.0005
     1113           0.281250   0.343750   0.531250         0.0005
     1114           0.281250   0.343750   0.593750         0.0005
     1115           0.281250   0.343750   0.656250         0.0005
     1116           0.281250   0.343750   0.718750         0.0005
     1117           0.281250   0.343750   0.781250         0.0005
     1118           0.281250   0.343750   0.843750         0.0005
     1119           0.281250   0.343750   0.906250         0.0005
     1120           0.281250   0.343750   0.968750         0.0005
     1121           0.281250   0.406250   0.031250         0.0005
     1122           0.281250   0.406250   0.093750         0.0005
     1123           0.281250   0.406250   0.156250         0.0005
     1124           0.281250   0.406250   0.218750         0.0005
     1125           0.281250   0.406250   0.281250         0.0005
     1126           0.281250   0.406250   0.343750         0.0005
     1127           0.281250   0.406250   0.406250         0.0005
     1128           0.281250   0.406250   0.468750         0.0005
     1129           0.281250   0.406250   0.531250         0.0005
     1130           0.281250   0.406250   0.593750         0.0005
     1131           0.281250   0.406250   0.656250         0.0005
     1132           0.281250   0.406250   0.718750         0.0005
     1133           0.281250   0.406250   0.781250         0.0005
     1134           0.281250   0.406250   0.843750         0.0005
     1135           0.281250   0.406250   0.906250         0.0005
     1136           0.281250   0.406250   0.968750         0.0005
     1137           0.281250   0.468750   0.031250         0.0005
     1138           0.281250   0.468750   0.093750         0.0005
     1139           0.281250   0.468750   0.156250         0.0005
     1140           0.281250   0.468750   0.218750         0.0005
     1141           0.281250   0.468750   0.281250         0.0005
     1142           0.281250   0.468750   0.343750         0.0005
     1143           0.281250   0.468750   0.406250         0.0005
     1144           0.281250   0.468750   0.468750         0.0005
     1145           0.281250   0.468750   0.531250         0.0005
     1146           0.281250   0.468750   0.593750         0.0005
     1147           0.281250   0.468750   0.656250         0.0005
     1148           0.281250   0.468750   0.718750         0.0005
     1149           0.281250   0.468750   0.781250         0.0005
     1150           0.281250   0.468750   0.843750         0.0005
     1151           0.281250   0.468750   0.906250         0.0005
     1152           0.281250   0.468750   0.968750         0.0005
     1153           0.281250   0.531250   0.031250         0.0005
     1154           0.281250   0.531250   0.093750         0.0005
     1155           0.281250   0.531250   0.156250         0.0005
     1156           0.281250   0.531250   0.218750         0.0005
     1157           0.281250   0.531250   0.281250         0.0005
     1158           0.281250   0.531250   0.343750         0.0005
     1159           0.281250   0.531250   0.406250         0.0005
     1160           0.281250   0.531250   0.468750         0.0005
     1161           0.281250   0.531250   0.531250         0.0005
     1162           0.281250   0.531250   0.593750         0.0005
     1163           0.281250   0.531250   0.656250         0.0005
[...]

  Frequencies (cm-1) [NB: Negative implies an imaginary mode]:

  327.73  403.83  416.00  469.07  493.17  794.60


--------------------------------------------------------------------------------
  K point   2012 =   0.468750  0.843750  0.718750  Weight =    0.000
--------------------------------------------------------------------------------

  Frequencies (cm-1) [NB: Negative implies an imaginary mode]:

  309.85  388.47  396.64  462.49  524.31  803.94


--------------------------------------------------------------------------------
  K point   2013 =   0.468750  0.843750  0.781250  Weight =    0.000
--------------------------------------------------------------------------------

  Frequencies (cm-1) [NB: Negative implies an imaginary mode]:

  296.72  366.77  374.36  447.98  563.22  812.14


--------------------------------------------------------------------------------
  K point   2014 =   0.468750  0.843750  0.843750  Weight =    0.000
--------------------------------------------------------------------------------

  Frequencies (cm-1) [NB: Negative implies an imaginary mode]:

  292.19  347.63  359.31  427.50  598.78  814.83


--------------------------------------------------------------------------------
  K point   2015 =   0.468750  0.843750  0.906250  Weight =    0.000
--------------------------------------------------------------------------------

  Frequencies (cm-1) [NB: Negative implies an imaginary mode]:

  294.98  331.01  364.85  408.43  625.13  808.17


--------------------------------------------------------------------------------
  K point   2016 =   0.468750  0.843750  0.968750  Weight =    0.000
--------------------------------------------------------------------------------

  Frequencies (cm-1) [NB: Negative implies an imaginary mode]:

  296.91  336.84  373.85  405.75  639.19  790.73


--------------------------------------------------------------------------------
  K point   2017 =   0.468750  0.906250  0.031250  Weight =    0.000
--------------------------------------------------------------------------------

  Frequencies (cm-1) [NB: Negative implies an imaginary mode]:

  295.30  321.60  361.07  391.09  659.15  794.92


--------------------------------------------------------------------------------
  K point   2018 =   0.468750  0.906250  0.093750  Weight =    0.000
--------------------------------------------------------------------------------

  Frequencies (cm-1) [NB: Negative implies an imaginary mode]:

  303.67  347.54  374.67  420.69  633.63  779.42


--------------------------------------------------------------------------------
  K point   2019 =   0.468750  0.906250  0.156250  Weight =    0.000
--------------------------------------------------------------------------------

  Frequencies (cm-1) [NB: Negative implies an imaginary mode]:

  315.39  378.69  396.04  449.51  594.10  763.76


--------------------------------------------------------------------------------
  K point   2020 =   0.468750  0.906250  0.218750  Weight =    0.000
--------------------------------------------------------------------------------

  Frequencies (cm-1) [NB: Negative implies an imaginary mode]:

  329.85  405.30  418.83  467.70  548.45  754.10


--------------------------------------------------------------------------------
  K point   2021 =   0.468750  0.906250  0.281250  Weight =    0.000
--------------------------------------------------------------------------------

  Frequencies (cm-1) [NB: Negative implies an imaginary mode]:

  344.78  411.34  440.79  473.77  507.81  755.48


--------------------------------------------------------------------------------
  K point   2022 =   0.468750  0.906250  0.343750  Weight =    0.000
--------------------------------------------------------------------------------

  Frequencies (cm-1) [NB: Negative implies an imaginary mode]:

  356.11  390.21  457.43  477.82  481.54  765.49


--------------------------------------------------------------------------------
  K point   2023 =   0.468750  0.906250  0.406250  Weight =    0.000
--------------------------------------------------------------------------------

  Frequencies (cm-1) [NB: Negative implies an imaginary mode]:

  351.97  374.01  457.69  470.35  485.95  776.76


--------------------------------------------------------------------------------
  K point   2024 =   0.468750  0.906250  0.468750  Weight =    0.000
--------------------------------------------------------------------------------

  Frequencies (cm-1) [NB: Negative implies an imaginary mode]:

  341.92  372.85  451.34  472.11  487.08  783.73


--------------------------------------------------------------------------------
  K point   2025 =   0.468750  0.906250  0.531250  Weight =    0.000
--------------------------------------------------------------------------------

  Frequencies (cm-1) [NB: Negative implies an imaginary mode]:

  348.36  370.56  455.56  467.99  482.96  784.92


--------------------------------------------------------------------------------
  K point   2026 =   0.468750  0.906250  0.593750  Weight =    0.000
--------------------------------------------------------------------------------

  Frequencies (cm-1) [NB: Negative implies an imaginary mode]:

  347.90  383.60  451.05  472.17  477.82  782.75


--------------------------------------------------------------------------------
  K point   2027 =   0.468750  0.906250  0.656250  Weight =    0.000
--------------------------------------------------------------------------------

  Frequencies (cm-1) [NB: Negative implies an imaginary mode]:

  333.93  397.49  432.38  466.99  500.10  782.45


--------------------------------------------------------------------------------
  K point   2028 =   0.468750  0.906250  0.718750  Weight =    0.000
--------------------------------------------------------------------------------

  Frequencies (cm-1) [NB: Negative implies an imaginary mode]:

  317.84  385.84  409.29  456.54  539.49  788.27


--------------------------------------------------------------------------------
  K point   2029 =   0.468750  0.906250  0.781250  Weight =    0.000
--------------------------------------------------------------------------------

  Frequencies (cm-1) [NB: Negative implies an imaginary mode]:

  304.00  359.05  385.32  435.50  584.77  798.80


--------------------------------------------------------------------------------
  K point   2030 =   0.468750  0.906250  0.843750  Weight =    0.000
--------------------------------------------------------------------------------

  Frequencies (cm-1) [NB: Negative implies an imaginary mode]:

  294.98  331.01  364.85  408.43  625.13  808.17


--------------------------------------------------------------------------------
  K point   2031 =   0.468750  0.906250  0.906250  Weight =    0.000
--------------------------------------------------------------------------------

  Frequencies (cm-1) [NB: Negative implies an imaginary mode]:

  291.56  310.71  355.55  383.86  653.82  811.26


--------------------------------------------------------------------------------
  K point   2032 =   0.468750  0.906250  0.968750  Weight =    0.000
--------------------------------------------------------------------------------

  Frequencies (cm-1) [NB: Negative implies an imaginary mode]:

  291.81  306.78  358.37  373.13  666.09  806.40


--------------------------------------------------------------------------------
  K point   2033 =   0.468750  0.968750  0.031250  Weight =    0.000
--------------------------------------------------------------------------------

  Frequencies (cm-1) [NB: Negative implies an imaginary mode]:

  287.68  294.43  354.66  363.51  660.93  822.98


--------------------------------------------------------------------------------
  K point   2034 =   0.468750  0.968750  0.093750  Weight =    0.000
--------------------------------------------------------------------------------

  Frequencies (cm-1) [NB: Negative implies an imaginary mode]:

  289.33  316.17  369.47  387.82  631.16  819.77


--------------------------------------------------------------------------------
  K point   2035 =   0.468750  0.968750  0.156250  Weight =    0.000
--------------------------------------------------------------------------------

  Frequencies (cm-1) [NB: Negative implies an imaginary mode]:

  296.08  346.85  389.73  420.52  589.28  809.95


--------------------------------------------------------------------------------
  K point   2036 =   0.468750  0.968750  0.218750  Weight =    0.000
--------------------------------------------------------------------------------

  Frequencies (cm-1) [NB: Negative implies an imaginary mode]:

  307.35  376.03  410.57  449.25  542.25  798.94


--------------------------------------------------------------------------------
  K point   2037 =   0.468750  0.968750  0.281250  Weight =    0.000
--------------------------------------------------------------------------------

  Frequencies (cm-1) [NB: Negative implies an imaginary mode]:

  320.77  390.85  429.46  464.98  501.46  793.31


--------------------------------------------------------------------------------
  K point   2038 =   0.468750  0.968750  0.343750  Weight =    0.000
--------------------------------------------------------------------------------

  Frequencies (cm-1) [NB: Negative implies an imaginary mode]:

  333.45  378.29  444.58  470.96  479.95  794.74


--------------------------------------------------------------------------------
  K point   2039 =   0.468750  0.968750  0.406250  Weight =    0.000
--------------------------------------------------------------------------------

  Frequencies (cm-1) [NB: Negative implies an imaginary mode]:

  342.78  354.56  454.52  461.25  484.54  798.31


--------------------------------------------------------------------------------
  K point   2040 =   0.468750  0.968750  0.468750  Weight =    0.000
--------------------------------------------------------------------------------

  Frequencies (cm-1) [NB: Negative implies an imaginary mode]:

  344.17  347.87  456.22  458.53  489.35  797.95


--------------------------------------------------------------------------------
  K point   2041 =   0.468750  0.968750  0.531250  Weight =    0.000
--------------------------------------------------------------------------------

  Frequencies (cm-1) [NB: Negative implies an imaginary mode]:

  346.08  357.97  456.01  463.09  488.21  790.80


--------------------------------------------------------------------------------
  K point   2042 =   0.468750  0.968750  0.593750  Weight =    0.000
--------------------------------------------------------------------------------

  Frequencies (cm-1) [NB: Negative implies an imaginary mode]:

  339.69  387.03  447.36  478.56  484.05  778.42


--------------------------------------------------------------------------------
  K point   2043 =   0.468750  0.968750  0.656250  Weight =    0.000
--------------------------------------------------------------------------------

  Frequencies (cm-1) [NB: Negative implies an imaginary mode]:

  329.25  408.57  433.14  474.65  508.94  767.05


--------------------------------------------------------------------------------
  K point   2044 =   0.468750  0.968750  0.718750  Weight =    0.000
--------------------------------------------------------------------------------

  Frequencies (cm-1) [NB: Negative implies an imaginary mode]:

  316.98  399.57  414.72  465.67  550.29  764.97


--------------------------------------------------------------------------------
  K point   2045 =   0.468750  0.968750  0.781250  Weight =    0.000
--------------------------------------------------------------------------------

  Frequencies (cm-1) [NB: Negative implies an imaginary mode]:

  305.47  371.12  394.08  441.00  597.82  774.76


--------------------------------------------------------------------------------
  K point   2046 =   0.468750  0.968750  0.843750  Weight =    0.000
--------------------------------------------------------------------------------

  Frequencies (cm-1) [NB: Negative implies an imaginary mode]:

  296.91  336.84  373.85  405.75  639.19  790.73


--------------------------------------------------------------------------------
  K point   2047 =   0.468750  0.968750  0.906250  Weight =    0.000
--------------------------------------------------------------------------------

  Frequencies (cm-1) [NB: Negative implies an imaginary mode]:

  291.81  306.78  358.37  373.13  666.09  806.40


--------------------------------------------------------------------------------
  K point   2048 =   0.468750  0.968750  0.968750  Weight =    0.000
--------------------------------------------------------------------------------

  Frequencies (cm-1) [NB: Negative implies an imaginary mode]:

  288.55  291.10  353.26  354.70  673.57  818.02


--------------------------------------------------------------------------------
  Phonon properties (per mole of unit cells): Temperature =      0.000 K
--------------------------------------------------------------------------------
  Zero point energy            =        0.174330 eV
--------------------------------------------------------------------------------

  Phonon density of states : 

--------------------------------------------------------------------------------
 Frequency (cm-1) Density of States                                             
--------------------------------------------------------------------------------
    0.00000 |                                                              0.000
   17.45647 |                                                              0.000
   34.91294 |                                                              0.000
   52.36941 |                                                              0.000
   69.82587 |*                                                             0.001
   87.28234 |*                                                             0.001
  104.73881 |**                                                            0.003
  122.19528 |**                                                            0.002
  139.65175 |****                                                          0.005
  157.10822 |****                                                          0.005
  174.56469 |*****                                                         0.006
  192.02116 |********                                                      0.010
  209.47762 |*******                                                       0.009
  226.93409 |************                                                  0.015
  244.39056 |*************                                                 0.015
  261.84703 |******************                                            0.022
  279.30350 |***************************                                   0.033
  296.75997 |*******************************                               0.037
  314.21644 |**********************************                            0.041
  331.67291 |********************************                              0.038
  349.12937 |**************************************                        0.045
  366.58584 |*******************************************************       0.065
  384.04231 |*********************************************************     0.068
  401.49878 |*********************************************************     0.067
  418.95525 |************************************************************  0.070
  436.41172 |*******************************************************       0.065
  453.86819 |********************************************                  0.052
  471.32466 |*************************************************             0.058
  488.78112 |**********                                                    0.012
  506.23759 |*********                                                     0.011
  523.69406 |********                                                      0.010
  541.15053 |********                                                      0.010
  558.60700 |********                                                      0.010
  576.06347 |********                                                      0.010
  593.51994 |***********                                                   0.014
  610.97640 |*********                                                     0.011
  628.43287 |******                                                        0.007
  645.88934 |****                                                          0.006
  663.34581 |******                                                        0.008
  680.80228 |***                                                           0.004
  698.25875 |*******                                                       0.009
  715.71522 |*****                                                         0.007
  733.17169 |********                                                      0.010
  750.62815 |*********                                                     0.011
  768.08462 |*********                                                     0.011
  785.54109 |********                                                      0.010
  802.99756 |**********                                                    0.012
  820.45403 |*******                                                       0.009
  837.91050 |******                                                        0.008
  855.36697 |******                                                        0.007
  872.82344 |******                                                        0.007
  890.27990 |*****                                                         0.007
  907.73637 |****                                                          0.006
  925.19284 |****                                                          0.005
  942.64931 |****                                                          0.006
  960.10578 |***                                                           0.004
  977.56225 |***                                                           0.004
  995.01872 |***                                                           0.004
 1012.47518 |**                                                            0.003
 1029.93165 |**                                                            0.003
 1047.38812 |**                                                            0.003
 1064.84459 |*                                                             0.002
 1082.30106 |*                                                             0.002
 1099.75753 |                                                              0.001
--------------------------------------------------------------------------------




  Phonon density of states written as mgo_ph_dos_16.dens            



  Time to end of properties =       2.1719 seconds


  Peak dynamic memory used =       0.74 MB 


  Timing analysis for GULP :

--------------------------------------------------------------------------------
  Task / Subroutine                                          Time (Seconds)
--------------------------------------------------------------------------------
  Calculation of reciprocal space energy and derivatives          0.3594
  Calculation of real space energy and derivatives                1.5313
  Calculation of phonons                                          2.1406
  Calculation of scattering                                       0.0000
  Disk read/write operations to scratch files                     0.0156
--------------------------------------------------------------------------------
  Total CPU time                                                  2.1719
--------------------------------------------------------------------------------


  Job Finished at 14:10.30 21st November   2022                               

