********************************************************************************
*                       GENERAL UTILITY LATTICE PROGRAM                        *
*                                 Julian Gale                                  *
*                      Nanochemistry Research Institute                        *
*                           Department of Chemistry                            *
*                    Curtin University, Western Australia                      *
********************************************************************************
* Version = 4.3.5 * Last modified = 16th December 2015                         *
********************************************************************************
*  single       - perform a single point run                                   *
*  conp         - constant pressure calculation                                *
*  phonon       - calculate phonons for final geometry                         *
*  eigenvectors - output phonon eigenvectors                                   *
********************************************************************************
* ASE calculation                                                              *
********************************************************************************


  Job Started  at 12:57.29 21st November   2022                               

  Number of CPUs =     1


  Total number of configurations input =   1

********************************************************************************
*  Input for Configuration =   1                                               *
********************************************************************************

  Formula = MgO                                                         

  Number of irreducible atoms/shells =       2


  Total number atoms/shells =       2

  Dimensionality = 3               :  Bulk   



  Cartesian lattice vectors (Angstroms) :

        3.470260    0.000000    0.000000
        0.000000   10.000000    0.000000
        0.000000    0.000000   10.000000

  Cell parameters (Angstroms/Degrees):

  a =       3.4703    alpha =  90.0000
  b =      10.0000    beta  =  90.0000
  c =      10.0000    gamma =  90.0000

  Initial cell volume =         347.026000 Angs**3

  Shrinking factors =     10     1     1

  Temperature of configuration =  0.000     K 

  Pressure of configuration =         0.000 GPa 

  Fractional coordinates of asymmetric unit :

--------------------------------------------------------------------------------
   No.  Atomic       x           y          z         Charge      Occupancy
        Label      (Frac)      (Frac)     (Frac)        (e)         (Frac)  
--------------------------------------------------------------------------------
      1 Mg    c    0.000000    0.000000    0.000000     2.00000    1.000000    
      2 O     c    0.500000    0.000000    0.000000    -2.00000    1.000000    
--------------------------------------------------------------------------------


  Brillouin zone sampling points :

--------------------------------------------------------------------------------
  Point number          x          y          z            Weight
--------------------------------------------------------------------------------
        1          -1.000000   0.000000   0.000000         0.0714
        2          -0.750000   0.000000   0.000000         0.0714
        3          -0.500000   0.000000   0.000000         0.0714
        4          -0.250000   0.000000   0.000000         0.0714
        5           0.000000   0.000000   0.000000         0.0714
        6           0.250000   0.000000   0.000000         0.0714
        7           0.500000   0.000000   0.000000         0.0714
        8           0.750000   0.000000   0.000000         0.0714
        9           1.000000   0.000000   0.000000         0.0714
       10           0.050000   0.500000   0.500000         0.0714
       11           0.150000   0.500000   0.500000         0.0714
       12           0.250000   0.500000   0.500000         0.0714
       13           0.350000   0.500000   0.500000         0.0714
       14           0.450000   0.500000   0.500000         0.0714
--------------------------------------------------------------------------------


********************************************************************************
*  General input information                                                   *
********************************************************************************

  Species output for all configurations : 

--------------------------------------------------------------------------------
  Species    Type    Atomic    Atomic    Charge       Radii (Angs)     Library
                     Number     Mass       (e)     Cova   Ionic  VDW   Symbol
--------------------------------------------------------------------------------
    Mg       Core       12      24.31   2.000000   1.100  0.000  1.640          
    O        Core        8      16.00  -2.000000   0.730  0.000  1.360          
--------------------------------------------------------------------------------


  Lattice summation method               =    Ewald          (3-D)
                                         =    Parry          (2-D)
                                         =    Saunders et al (1-D)
  Accuracy factor for lattice sums       =   12.000


  Time limit = Infinity

  Maximum range for interatomic potentials =    100000.000000 Angstroms

  General interatomic potentials :

--------------------------------------------------------------------------------
Atom  Types   Potential         A         B         C         D     Cutoffs(Ang)
  1     2                                                            Min    Max 
--------------------------------------------------------------------------------
O    c Mg   c Buckingham    0.130E+04 0.300      0.00      0.00     0.000 12.000
O    c O    c Buckingham    0.228E+05 0.149      27.9      0.00     0.000 12.000
--------------------------------------------------------------------------------

********************************************************************************
*  Output for configuration   1                                                *
********************************************************************************


  Components of energy : 

--------------------------------------------------------------------------------
  Interatomic potentials     =           7.95681050 eV
  Monopole - monopole (real) =         -28.65145300 eV
  Monopole - monopole (recip)=         -17.36769933 eV
  Monopole - monopole (total)=         -46.01915233 eV
--------------------------------------------------------------------------------
  Total lattice energy       =         -38.06234183 eV
--------------------------------------------------------------------------------
  Total lattice energy       =           -3672.4342 kJ/(mole unit cells)
--------------------------------------------------------------------------------

  Born effective charge tensors : 

-------------------------------------------------------------------------------
  Atom             x           y             z
-------------------------------------------------------------------------------
   1 Mg    x       2.0000      0.0000      0.0000
           y       0.0000      2.0000      0.0000
           z       0.0000      0.0000      2.0000
-------------------------------------------------------------------------------
   2 O     x      -2.0000      0.0000      0.0000
           y       0.0000     -2.0000      0.0000
           z       0.0000      0.0000     -2.0000
-------------------------------------------------------------------------------




  Elastic Constant Matrix: (Units=GPa)

-------------------------------------------------------------------------------
  Indices      1         2         3         4         5         6    
-------------------------------------------------------------------------------
       1     80.3440   -0.0002   -0.0002   -0.0000   -0.0000   -0.0000
       2     -0.0002   -0.0008    0.0000    0.0000   -0.0000    0.0000
       3     -0.0002    0.0000   -0.0008    0.0000   -0.0000   -0.0000
       4     -0.0000    0.0000    0.0000    0.0002    0.0000   -0.0000
       5     -0.0000   -0.0000   -0.0000    0.0000    0.0000   -0.0000
       6     -0.0000    0.0000   -0.0000   -0.0000   -0.0000    0.0000
-------------------------------------------------------------------------------


  Elastic Compliance Matrix: (Units=1/GPa)

-------------------------------------------------------------------------------
  Indices      1         2         3         4         5         6    
-------------------------------------------------------------------------------
       1    0.012446 -0.003651 -0.003651  0.000000 -0.000000  0.000000
       2   -0.003651********** -0.123255  0.000000 -0.000000  0.000000
       3   -0.003651 -0.123255**********  0.000000 -0.000000 -0.000000
       4    0.000000  0.000000  0.000000********** -0.000000  0.000000
       5   -0.000000 -0.000000 -0.000000 -0.000000**********  0.000000
       6    0.000000  0.000000 -0.000000  0.000000  0.000000**********
-------------------------------------------------------------------------------

  Mechanical properties :

-------------------------------------------------------------------------------
  Convention :                    Reuss         Voigt         Hill
-------------------------------------------------------------------------------
  Bulk  Modulus (GPa)     =      -0.00040       8.92683       4.46321
  Shear Modulus (GPa)     =       0.00004       5.35623       2.67813
-------------------------------------------------------------------------------
  Velocity S-wave (km/s)  =       0.01421       5.26958       3.72617
  Velocity P-wave (km/s)  =       0.04266       9.12712       6.45378
-------------------------------------------------------------------------------
  Compressibility (1/GPa) = *************
-------------------------------------------------------------------------------
  Stress axis :                     x             y             z
-------------------------------------------------------------------------------
  Youngs Moduli (GPa)     =      80.34414      -0.00081      -0.00081
-------------------------------------------------------------------------------
  Poissons Ratio (x)      =                    -0.00000      -0.00000
  Poissons Ratio (y)      =       0.29333                    -0.00010
  Poissons Ratio (z)      =       0.29333      -0.00010
-------------------------------------------------------------------------------


  Piezoelectric Strain Matrix: (Units=C/m**2)

-------------------------------------------------------------------------------
  Indices      1         2         3         4         5         6    
-------------------------------------------------------------------------------
       x    -0.00000   0.00000   0.00000  -0.00000   0.00000  -0.00000
       y    -0.00000  -0.00000   0.00000   0.00000  -0.00000   0.00000
       z     0.00000   0.00000  -0.00000  -0.00000   0.00000  -0.00000
-------------------------------------------------------------------------------


  Piezoelectric Stress Matrix: (Units=10**-11 C/N)

-------------------------------------------------------------------------------
  Indices      1         2         3         4         5         6    
-------------------------------------------------------------------------------
       x    -0.00000  -0.00000  -0.00000  -0.00000   0.00000  -0.00000
       y     0.00000   0.00000   0.00000   0.00000  -0.00000   0.00000
       z     0.00000   0.00000   0.00000  -0.00000   0.00000  -0.00000
-------------------------------------------------------------------------------


  Static dielectric constant tensor : 

-------------------------------------------------------------------------------
              x         y         z
-------------------------------------------------------------------------------
       x     1.04942   0.00000   0.00000
       y     0.00000   1.30518  -0.00000
       z     0.00000  -0.00000   1.30518
--------------------------------------------------------------------------------

  Static refractive indices : 

-------------------------------------------------------------------------------
    1 =    1.02441      2 =    1.14245      3 =    1.14245
-------------------------------------------------------------------------------


  Phonon Calculation : 

  K direction for n-a correction at gamma =  1.00000  1.00000  1.00000

  Number of k points for this configuration =       14

--------------------------------------------------------------------------------
  K point      1 =  -1.000000  0.000000  0.000000  Weight =    0.071
--------------------------------------------------------------------------------

 Frequencies (cm-1) and Eigenvectors : 

 Frequency      -0.1135             -0.0276             -0.0276
 IR Intensity    0.3969              0.3969              0.3969
    in X         0.3969              0.0000              0.0000
    in Y         0.0000              0.0000              0.3969
    in Z         0.0000              0.3969              0.0000
 Raman Intsty    0.0000              0.0000              0.0000

                Real    Imaginary   Real    Imaginary   Real    Imaginary

     1 x      -0.776580 -0.000000 -0.000000 -0.000000  0.000000  0.000000
     1 y       0.000000  0.000000  0.000000 -0.000000  0.776580  0.000000
     1 z       0.000000  0.000000  0.776580  0.000000  0.000000 -0.000000
     2 x       0.630019  0.000000 -0.000000  0.000000 -0.000000 -0.000000
     2 y      -0.000000 -0.000000  0.000000 -0.000000 -0.630019 -0.000000
     2 z       0.000000  0.000000 -0.630019  0.000000  0.000000  0.000000


 Frequency     438.8673            438.8673           1090.5610
 IR Intensity    0.0176              0.0176              0.0176
    in X         0.0000              0.0000              0.0176
    in Y         0.0176              0.0000              0.0000
    in Z         0.0000              0.0176              0.0000
 Raman Intsty    0.0000              0.0000              0.0000

                Real    Imaginary   Real    Imaginary   Real    Imaginary

     1 x       0.000000  0.000000 -0.000000 -0.000000 -0.630019 -0.000000
     1 y       0.630019  0.000000  0.000000 -0.000000  0.000000  0.000000
     1 z       0.000000  0.000000  0.630019  0.000000 -0.000000 -0.000000
     2 x      -0.000000 -0.000000 -0.000000  0.000000 -0.776580 -0.000000
     2 y       0.776580  0.000000  0.000000 -0.000000 -0.000000 -0.000000
     2 z       0.000000  0.000000  0.776580  0.000000  0.000000  0.000000




--------------------------------------------------------------------------------
  K point      2 =  -0.750000  0.000000  0.000000  Weight =    0.071
--------------------------------------------------------------------------------

 Frequencies (cm-1) and Eigenvectors : 

 Frequency      44.6009             44.6009            339.7340
 IR Intensity    0.3961              0.3961              0.0184
    in X         0.0000              0.0000              0.0000
    in Y         0.3961              0.0000              0.0000
    in Z         0.0000              0.3961              0.0184
 Raman Intsty    0.0000              0.0000              0.0000

                Real    Imaginary   Real    Imaginary   Real    Imaginary

     1 x       0.000000  0.000000 -0.000000 -0.000000 -0.000000 -0.000000
     1 y       0.779515  0.000017  0.000000 -0.000000  0.000000 -0.000000
     1 z       0.000000 -0.000000  0.779515  0.000000  0.626384  0.000000
     2 x      -0.000000 -0.000000 -0.000000  0.000000 -0.000000  0.000000
     2 y      -0.626384 -0.000014  0.000000 -0.000000  0.000000 -0.000000
     2 z       0.000000  0.000000 -0.626384  0.000000  0.779515  0.000000


 Frequency     339.7340            471.4237           1083.9253
 IR Intensity    0.0184              0.3878              0.0267
    in X         0.0000              0.3878              0.0267
    in Y         0.0184              0.0000              0.0000
    in Z         0.0000              0.0000              0.0000
 Raman Intsty    0.0000              0.0000              0.0000

                Real    Imaginary   Real    Imaginary   Real    Imaginary

     1 x       0.000000  0.000000  0.806192  0.020738 -0.591289  0.001420
     1 y      -0.626384  0.000008  0.000000 -0.000000  0.000000 -0.000000
     1 z       0.000000  0.000000  0.000000 -0.000000 -0.000000 -0.000000
     2 x      -0.000000 -0.000000 -0.591096 -0.015205 -0.806456  0.001937
     2 y      -0.779515  0.000010  0.000000 -0.000000 -0.000000 -0.000000
     2 z       0.000000  0.000000 -0.000000  0.000000  0.000000  0.000000




--------------------------------------------------------------------------------
  K point      3 =  -0.500000  0.000000  0.000000  Weight =    0.071
--------------------------------------------------------------------------------

 Frequencies (cm-1) and Eigenvectors : 

 Frequency     152.2909            152.2909            189.1505
 IR Intensity    0.1645              0.1645              0.2500
    in X         0.0000              0.0000              0.0000
    in Y         0.1645              0.0001              0.0000
    in Z         0.0001              0.1645              0.2500
 Raman Intsty    0.0000              0.0000              0.0000

                Real    Imaginary   Real    Imaginary   Real    Imaginary

     1 x      -0.000000  0.000000  0.000000  0.000000 -0.000000 -0.000000
     1 y      -0.973798  0.226538  0.019410 -0.004525 -0.000000  0.000000
     1 z       0.007880  0.018306  0.395736  0.918148  0.000000  0.000000
     2 x       0.000000 -0.000000 -0.000000 -0.000000 -0.000000  0.000000
     2 y       0.000000 -0.000000 -0.000000  0.000000  0.000000  0.000000
     2 z      -0.000000  0.000000 -0.000000  0.000000  1.000000  0.000000


 Frequency     189.1505            775.8321            954.3351
 IR Intensity    0.2500              0.1645              0.2500
    in X         0.0000              0.1645              0.2500
    in Y         0.2500              0.0000              0.0000
    in Z         0.0000              0.0000              0.0000
 Raman Intsty    0.0000              0.0000              0.0000

                Real    Imaginary   Real    Imaginary   Real    Imaginary

     1 x       0.000000 -0.000000 -0.999722 -0.023582 -0.000000 -0.000000
     1 y       0.000000  0.000000 -0.000000  0.000000  0.000000 -0.000000
     1 z       0.000000  0.000000  0.000000  0.000000 -0.000000 -0.000000
     2 x      -0.000000  0.000000  0.000000 -0.000000 -1.000000  0.000000
     2 y       1.000000 -0.000000 -0.000000  0.000000  0.000000  0.000000
     2 z      -0.000000  0.000000 -0.000000  0.000000 -0.000000  0.000000




--------------------------------------------------------------------------------
  K point      4 =  -0.250000  0.000000  0.000000  Weight =    0.071
--------------------------------------------------------------------------------

 Frequencies (cm-1) and Eigenvectors : 

 Frequency      44.6009             44.6009            339.7340
 IR Intensity    0.0000              0.0000              0.4145
    in X         0.0000              0.0000              0.0000
    in Y         0.0000              0.0000              0.0000
    in Z         0.0000              0.0000              0.4145
 Raman Intsty    0.0000              0.0000              0.0000

                Real    Imaginary   Real    Imaginary   Real    Imaginary

     1 x       0.000000  0.000000 -0.000000 -0.000000  0.000000  0.000000
     1 y       0.000000 -0.000000  0.779515  0.000013  0.000000 -0.000000
     1 z      -0.779515  0.000000  0.000000 -0.000000 -0.626384  0.000000
     2 x      -0.000000 -0.000000  0.000000  0.000000 -0.000000 -0.000000
     2 y       0.000000  0.000000  0.626384  0.000011  0.000000  0.000000
     2 z      -0.626384  0.000000  0.000000  0.000000  0.779515  0.000000


 Frequency     339.7340            471.4237           1083.9253
 IR Intensity    0.4145              0.0010              0.4136
    in X         0.0000              0.0010              0.4136
    in Y         0.4145              0.0000              0.0000
    in Z         0.0000              0.0000              0.0000
 Raman Intsty    0.0000              0.0000              0.0000

                Real    Imaginary   Real    Imaginary   Real    Imaginary

     1 x       0.000000 -0.000000 -0.796177 -0.128364  0.586840  0.072419
     1 y      -0.626384  0.000007 -0.000000 -0.000000 -0.000000  0.000000
     1 z       0.000000  0.000000  0.000000 -0.000000  0.000000 -0.000000
     2 x       0.000000  0.000000 -0.583753 -0.094116 -0.800387 -0.098771
     2 y       0.779515 -0.000009  0.000000  0.000000  0.000000 -0.000000
     2 z       0.000000  0.000000  0.000000  0.000000  0.000000  0.000000




--------------------------------------------------------------------------------
  K point      5 =   0.000000  0.000000  0.000000  Weight =    0.071
--------------------------------------------------------------------------------

 Frequencies (cm-1) and Eigenvectors : 

 Frequency      -0.0000   -0.0000   -0.0000  438.8673  438.8673 1117.1854
 IR Intensity    0.0000    0.0000    0.0000    0.4145    0.4145    0.4145
    in X         0.0000    0.0000    0.0000    0.0000    0.0000    0.4145
    in Y         0.0000    0.0000    0.0000    0.4145    0.0000    0.0000
    in Z         0.0000    0.0000    0.0000    0.0000    0.4145    0.0000
 Raman Intsty    0.0000    0.0000    0.0000    0.0000    0.0000    0.0000

     1 x       0.374035  0.000000 -0.680569  0.000000  0.000000  0.630019
     1 y      -0.680569 -0.000000 -0.374035 -0.630019 -0.000000  0.000000
     1 z      -0.000000 -0.776580  0.000000  0.000000 -0.630019  0.000000
     2 x       0.303445 -0.000000 -0.552128  0.000000 -0.000000 -0.776580
     2 y      -0.552128 -0.000000 -0.303445  0.776580  0.000000  0.000000
     2 z      -0.000000 -0.630019  0.000000  0.000000  0.776580  0.000000




--------------------------------------------------------------------------------
  K point      6 =   0.250000  0.000000  0.000000  Weight =    0.071
--------------------------------------------------------------------------------

 Frequencies (cm-1) and Eigenvectors : 

 Frequency      44.6009             44.6009            339.7340
 IR Intensity    0.0000              0.0000              0.4145
    in X         0.0000              0.0000              0.0000
    in Y         0.0000              0.0000              0.4145
    in Z         0.0000              0.0000              0.0000
 Raman Intsty    0.0000              0.0000              0.0000

                Real    Imaginary   Real    Imaginary   Real    Imaginary

     1 x      -0.000000 -0.000000  0.000000 -0.000000  0.000000  0.000000
     1 y       0.779515  0.000017 -0.000000  0.000000 -0.626384  0.000008
     1 z       0.000000  0.000000 -0.779515 -0.000000  0.000000 -0.000000
     2 x      -0.000000 -0.000000 -0.000000  0.000000  0.000000  0.000000
     2 y       0.626384  0.000014  0.000000 -0.000000  0.779515 -0.000010
     2 z       0.000000  0.000000 -0.626384  0.000000  0.000000  0.000000


 Frequency     339.7340            471.4237           1083.9253
 IR Intensity    0.4145              0.0010              0.4136
    in X         0.0000              0.0010              0.4136
    in Y         0.0000              0.0000              0.0000
    in Z         0.4145              0.0000              0.0000
 Raman Intsty    0.0000              0.0000              0.0000

                Real    Imaginary   Real    Imaginary   Real    Imaginary

     1 x       0.000000 -0.000000  0.806389  0.010582  0.591289 -0.001647
     1 y      -0.000000  0.000000  0.000000 -0.000000 -0.000000  0.000000
     1 z      -0.626384 -0.000000  0.000000 -0.000000  0.000000  0.000000
     2 x      -0.000000  0.000000  0.591240  0.007758 -0.806455  0.002247
     2 y       0.000000 -0.000000 -0.000000 -0.000000  0.000000 -0.000000
     2 z       0.779515  0.000000  0.000000  0.000000  0.000000  0.000000




--------------------------------------------------------------------------------
  K point      7 =   0.500000  0.000000  0.000000  Weight =    0.071
--------------------------------------------------------------------------------

 Frequencies (cm-1) and Eigenvectors : 

 Frequency     152.2909            152.2909            189.1505
 IR Intensity    0.1645              0.1645              0.2500
    in X         0.0000              0.0000              0.0000
    in Y         0.0000              0.1645              0.0000
    in Z         0.1645              0.0000              0.2500
 Raman Intsty    0.0000              0.0000              0.0000

                Real    Imaginary   Real    Imaginary   Real    Imaginary

     1 x       0.000000  0.000000 -0.000000 -0.000000  0.000000  0.000000
     1 y      -0.001186 -0.002385  0.434685  0.900579  0.000000 -0.000000
     1 z      -0.638832  0.769341 -0.001726  0.002029  0.000000 -0.000000
     2 x       0.000000  0.000000 -0.000000 -0.000000 -0.000000 -0.000000
     2 y      -0.000000 -0.000000  0.000000 -0.000000  0.000000 -0.000000
     2 z       0.000000  0.000000  0.000000  0.000000  1.000000  0.000000


 Frequency     189.1505            775.8321            954.3351
 IR Intensity    0.2500              0.1645              0.2500
    in X         0.0000              0.1645              0.2500
    in Y         0.2500              0.0000              0.0000
    in Z         0.0000              0.0000              0.0000
 Raman Intsty    0.0000              0.0000              0.0000

                Real    Imaginary   Real    Imaginary   Real    Imaginary

     1 x      -0.000000  0.000000  0.999722  0.023582 -0.000000  0.000000
     1 y       0.000000 -0.000000 -0.000000  0.000000  0.000000 -0.000000
     1 z      -0.000000  0.000000 -0.000000  0.000000  0.000000 -0.000000
     2 x       0.000000  0.000000 -0.000000 -0.000000 -1.000000  0.000000
     2 y       1.000000 -0.000000  0.000000  0.000000 -0.000000 -0.000000
     2 z      -0.000000  0.000000 -0.000000  0.000000 -0.000000  0.000000




--------------------------------------------------------------------------------
  K point      8 =   0.750000  0.000000  0.000000  Weight =    0.071
--------------------------------------------------------------------------------

 Frequencies (cm-1) and Eigenvectors : 

 Frequency      44.6009             44.6009            339.7340
 IR Intensity    0.3961              0.3961              0.0184
    in X         0.0000              0.0000              0.0000
    in Y         0.3961              0.0000              0.0184
    in Z         0.0000              0.3961              0.0000
 Raman Intsty    0.0000              0.0000              0.0000

                Real    Imaginary   Real    Imaginary   Real    Imaginary

     1 x       0.000000 -0.000000 -0.000000  0.000000  0.000000  0.000000
     1 y       0.779515 -0.000043  0.000000  0.000000  0.626384  0.000038
     1 z       0.000000  0.000000  0.779515 -0.000000  0.000000 -0.000000
     2 x      -0.000000  0.000000 -0.000000 -0.000000 -0.000000 -0.000000
     2 y      -0.626384  0.000035  0.000000  0.000000  0.779515  0.000047
     2 z      -0.000000  0.000000 -0.626384  0.000000  0.000000  0.000000


 Frequency     339.7340            471.4237           1083.9253
 IR Intensity    0.0184              0.3878              0.0267
    in X         0.0000              0.3878              0.0267
    in Y         0.0000              0.0000              0.0000
    in Z         0.0184              0.0000              0.0000
 Raman Intsty    0.0000              0.0000              0.0000

                Real    Imaginary   Real    Imaginary   Real    Imaginary

     1 x      -0.000000  0.000000  0.802201 -0.082758 -0.591266 -0.005427
     1 y       0.000000  0.000000 -0.000000  0.000000 -0.000000  0.000000
     1 z       0.626384 -0.000000  0.000000  0.000000 -0.000000  0.000000
     2 x      -0.000000 -0.000000 -0.588170  0.060677 -0.806424 -0.007402
     2 y       0.000000  0.000000 -0.000000  0.000000  0.000000  0.000000
     2 z       0.779515  0.000000  0.000000  0.000000  0.000000  0.000000




--------------------------------------------------------------------------------
  K point      9 =   1.000000  0.000000  0.000000  Weight =    0.071
--------------------------------------------------------------------------------

 Frequencies (cm-1) and Eigenvectors : 

 Frequency      -0.1135             -0.0276             -0.0276
 IR Intensity    0.3969              0.3969              0.3969
    in X         0.3969              0.0000              0.0000
    in Y         0.0000              0.0000              0.3969
    in Z         0.0000              0.3969              0.0000
 Raman Intsty    0.0000              0.0000              0.0000

                Real    Imaginary   Real    Imaginary   Real    Imaginary

     1 x      -0.776580  0.000000 -0.000000  0.000000  0.000000 -0.000000
     1 y       0.000000 -0.000000  0.000000 -0.000000  0.776580  0.000000
     1 z       0.000000 -0.000000  0.776580  0.000000  0.000000  0.000000
     2 x       0.630019 -0.000000 -0.000000 -0.000000 -0.000000  0.000000
     2 y      -0.000000  0.000000  0.000000  0.000000 -0.630019 -0.000000
     2 z       0.000000  0.000000 -0.630019  0.000000  0.000000  0.000000


 Frequency     438.8673            438.8673           1090.5610
 IR Intensity    0.0176              0.0176              0.0176
    in X         0.0000              0.0000              0.0176
    in Y         0.0176              0.0000              0.0000
    in Z         0.0000              0.0176              0.0000
 Raman Intsty    0.0000              0.0000              0.0000

                Real    Imaginary   Real    Imaginary   Real    Imaginary

     1 x       0.000000  0.000000 -0.000000  0.000000 -0.630019  0.000000
     1 y       0.630019  0.000000  0.000000 -0.000000  0.000000  0.000000
     1 z       0.000000 -0.000000  0.630019  0.000000 -0.000000 -0.000000
     2 x      -0.000000  0.000000 -0.000000 -0.000000 -0.776580  0.000000
     2 y       0.776580  0.000000  0.000000  0.000000 -0.000000 -0.000000
     2 z       0.000000  0.000000  0.776580  0.000000  0.000000  0.000000




--------------------------------------------------------------------------------
  K point     10 =   0.050000  0.500000  0.500000  Weight =    0.071
--------------------------------------------------------------------------------

 Frequencies (cm-1) and Eigenvectors : 

 Frequency       1.6995              1.6995             97.9351
 IR Intensity    0.0000              0.0000              0.0000
    in X         0.0000              0.0000              0.0000
    in Y         0.0000              0.0000              0.0000
    in Z         0.0000              0.0000              0.0000
 Raman Intsty    0.0000              0.0000              0.0000

                Real    Imaginary   Real    Imaginary   Real    Imaginary

     1 x      -0.000000 -0.000000 -0.000000  0.000000 -0.777634  0.000034
     1 y      -0.776596  0.000001 -0.000000 -0.000000  0.000000 -0.000000
     1 z       0.000000 -0.000000 -0.776596 -0.000000 -0.000000  0.000000
     2 x      -0.000000  0.000000  0.000000 -0.000000 -0.628717  0.000028
     2 y      -0.629999  0.000001  0.000000  0.000000  0.000000 -0.000000
     2 z       0.000000  0.000000 -0.629999  0.000000  0.000000  0.000000


 Frequency     463.9241            463.9241           1092.3343
 IR Intensity    0.4145              0.4145              0.4145
    in X         0.0000              0.0000              0.4145
    in Y         0.4145              0.0000              0.0000
    in Z         0.0000              0.4145              0.0000
 Raman Intsty    0.0000              0.0000              0.0000

                Real    Imaginary   Real    Imaginary   Real    Imaginary

     1 x      -0.000000  0.000000 -0.000000  0.000000  0.628717 -0.000060
     1 y       0.629999  0.000000 -0.000000 -0.000000  0.000000 -0.000000
     1 z       0.000000 -0.000000 -0.629999 -0.000000 -0.000000 -0.000000
     2 x      -0.000000  0.000000  0.000000 -0.000000 -0.777634  0.000074
     2 y      -0.776596 -0.000001  0.000000  0.000000  0.000000  0.000000
     2 z       0.000000  0.000000  0.776596  0.000000  0.000000  0.000000




--------------------------------------------------------------------------------
  K point     11 =   0.150000  0.500000  0.500000  Weight =    0.071
--------------------------------------------------------------------------------

 Frequencies (cm-1) and Eigenvectors : 

 Frequency      16.2671             16.2671            290.1855
 IR Intensity    0.0000              0.0000              0.0001
    in X         0.0000              0.0000              0.0001
    in Y         0.0000              0.0000              0.0000
    in Z         0.0000              0.0000              0.0000
 Raman Intsty    0.0000              0.0000              0.0000

                Real    Imaginary   Real    Imaginary   Real    Imaginary

     1 x      -0.000000  0.000000  0.000000 -0.000000  0.786331  0.000223
     1 y       0.776949 -0.000006  0.000000  0.000000  0.000000  0.000000
     1 z       0.000000 -0.000000 -0.776949 -0.000000  0.000000  0.000000
     2 x      -0.000000  0.000000  0.000000 -0.000000  0.617806  0.000175
     2 y       0.629564 -0.000005  0.000000 -0.000000  0.000000  0.000000
     2 z       0.000000  0.000000 -0.629564  0.000000  0.000000  0.000000


 Frequency     415.4947            415.4947           1096.6940
 IR Intensity    0.4145              0.4145              0.4144
    in X         0.0000              0.0000              0.4144
    in Y         0.0000              0.4145              0.0000
    in Z         0.4145              0.0000              0.0000
 Raman Intsty    0.0000              0.0000              0.0000

                Real    Imaginary   Real    Imaginary   Real    Imaginary

     1 x       0.000000 -0.000000  0.000000  0.000000  0.617806 -0.000015
     1 y       0.000000  0.000000 -0.629564 -0.000003  0.000000 -0.000000
     1 z      -0.629564 -0.000000  0.000000  0.000000 -0.000000 -0.000000
     2 x       0.000000 -0.000000  0.000000  0.000000 -0.786331  0.000020
     2 y       0.000000 -0.000000  0.776949  0.000004 -0.000000  0.000000
     2 z       0.776949  0.000000  0.000000  0.000000  0.000000  0.000000




--------------------------------------------------------------------------------
  K point     12 =   0.250000  0.500000  0.500000  Weight =    0.071
--------------------------------------------------------------------------------

 Frequencies (cm-1) and Eigenvectors : 

 Frequency      44.6306             44.6306            346.7110
 IR Intensity    0.0000              0.0000              0.4145
    in X         0.0000              0.0000              0.0000
    in Y         0.0000              0.0000              0.3929
    in Z         0.0000              0.0000              0.0216
 Raman Intsty    0.0000              0.0000              0.0000

                Real    Imaginary   Real    Imaginary   Real    Imaginary

     1 x       0.000000 -0.000000 -0.000000  0.000000 -0.000000 -0.000000
     1 y      -0.094028  0.000000  0.773705 -0.000000 -0.609983 -0.000000
     1 z       0.773705  0.000000  0.094028  0.000000 -0.143039 -0.000000
     2 x       0.000000  0.000000 -0.000000  0.000000 -0.000000 -0.000000
     2 y      -0.075585  0.000000  0.621953 -0.000000  0.758814  0.000000
     2 z       0.621953 -0.000000  0.075585  0.000000  0.177940  0.000000


 Frequency     346.7110            471.3934           1079.5081
 IR Intensity    0.4145              0.0010              0.4135
    in X         0.0000              0.0010              0.4135
    in Y         0.0216              0.0000              0.0000
    in Z         0.3929              0.0000              0.0000
 Raman Intsty    0.0000              0.0000              0.0000

                Real    Imaginary   Real    Imaginary   Real    Imaginary

     1 x       0.000000  0.000000 -0.806751  0.000377  0.590892 -0.000154
     1 y       0.143039  0.000000 -0.000000  0.000000 -0.000000 -0.000000
     1 z      -0.609983 -0.000000 -0.000000  0.000000  0.000000  0.000000
     2 x       0.000000  0.000000 -0.590892  0.000276 -0.806751  0.000210
     2 y      -0.177940 -0.000000 -0.000000  0.000000 -0.000000  0.000000
     2 z       0.758814  0.000000 -0.000000  0.000000 -0.000000  0.000000




--------------------------------------------------------------------------------
  K point     13 =   0.350000  0.500000  0.500000  Weight =    0.071
--------------------------------------------------------------------------------

 Frequencies (cm-1) and Eigenvectors : 

 Frequency      85.6636             85.6636            274.8739
 IR Intensity    0.0003              0.0003              0.4143
    in X         0.0000              0.0000              0.0000
    in Y         0.0000              0.0003              0.4141
    in Z         0.0003              0.0000              0.0002
 Raman Intsty    0.0000              0.0000              0.0000

                Real    Imaginary   Real    Imaginary   Real    Imaginary

     1 x      -0.000000 -0.000000 -0.000000 -0.000000 -0.000000  0.000000
     1 y       0.002991  0.000000  0.792302  0.000000 -0.609974  0.000000
     1 z       0.792302  0.000000 -0.002991 -0.000000 -0.013395 -0.000000
     2 x      -0.000000  0.000000 -0.000000 -0.000000 -0.000000  0.000000
     2 y       0.002304  0.000000  0.610117  0.000000  0.792117 -0.000000
     2 z       0.610117  0.000000 -0.002304  0.000000  0.017394  0.000000


 Frequency     274.8739            632.6003           1032.0806
 IR Intensity    0.4143              0.0070              0.4076
    in X         0.0000              0.0070              0.4076
    in Y         0.0002              0.0000              0.0000
    in Z         0.4141              0.0000              0.0000
 Raman Intsty    0.0000              0.0000              0.0000

                Real    Imaginary   Real    Imaginary   Real    Imaginary

     1 x       0.000000  0.000000 -0.851667 -0.000122  0.524084 -0.000071
     1 y       0.013395 -0.000000 -0.000000 -0.000000  0.000000 -0.000000
     1 z      -0.609974 -0.000000 -0.000000 -0.000000  0.000000 -0.000000
     2 x       0.000000  0.000000 -0.524084 -0.000075 -0.851667  0.000116
     2 y      -0.017394  0.000000 -0.000000 -0.000000 -0.000000  0.000000
     2 z       0.792117  0.000000 -0.000000  0.000000 -0.000000  0.000000




--------------------------------------------------------------------------------
  K point     14 =   0.450000  0.500000  0.500000  Weight =    0.071
--------------------------------------------------------------------------------

 Frequencies (cm-1) and Eigenvectors : 

 Frequency     135.7535            135.7535            208.5983
 IR Intensity    0.0123              0.0123              0.4023
    in X         0.0000              0.0000              0.0000
    in Y         0.0123              0.0000              0.0001
    in Z         0.0000              0.0123              0.4022
 Raman Intsty    0.0000              0.0000              0.0000

                Real    Imaginary   Real    Imaginary   Real    Imaginary

     1 x      -0.000000  0.000000 -0.000000  0.000000 -0.000000  0.000000
     1 y       0.872708 -0.000000  0.035366 -0.000000  0.005603 -0.000000
     1 z      -0.035366  0.000000  0.872708 -0.000000 -0.486929  0.000000
     2 x      -0.000000  0.000000 -0.000000 -0.000000  0.000000  0.000000
     2 y       0.486561 -0.000000  0.019717 -0.000000 -0.010050  0.000000
     2 z      -0.019717  0.000000  0.486561  0.000000  0.873366  0.000000


 Frequency     208.5983            753.5781            968.9751
 IR Intensity    0.4023              0.0585              0.3560
    in X         0.0000              0.0585              0.3560
    in Y         0.4022              0.0000              0.0000
    in Z         0.0001              0.0000              0.0000
 Raman Intsty    0.0000              0.0000              0.0000

                Real    Imaginary   Real    Imaginary   Real    Imaginary

     1 x      -0.000000  0.000000  0.956376 -0.000131 -0.292140 -0.000014
     1 y      -0.486929  0.000000  0.000000 -0.000000 -0.000000 -0.000000
     1 z      -0.005603  0.000000 -0.000000 -0.000000 -0.000000 -0.000000
     2 x      -0.000000  0.000000  0.292140 -0.000040  0.956376  0.000045
     2 y       0.873366 -0.000000  0.000000 -0.000000  0.000000  0.000000
     2 z       0.010050  0.000000  0.000000  0.000000 -0.000000  0.000000




--------------------------------------------------------------------------------
  Phonon properties (per mole of unit cells): Temperature =      0.000 K
--------------------------------------------------------------------------------
  Zero point energy            =        0.139732 eV
--------------------------------------------------------------------------------

  Phonon density of states : 

--------------------------------------------------------------------------------
 Frequency (cm-1) Density of States                                             
--------------------------------------------------------------------------------
    0.00000 |***********************************************************   0.133
   17.13584 |                                                              0.000
   34.27169 |*****************************                                 0.067
   51.40753 |                                                              0.000
   68.54338 |*****************************                                 0.067
   85.67922 |**************                                                0.033
  102.81507 |                                                              0.000
  119.95091 |*****************************                                 0.067
  137.08676 |                                                              0.000
  154.22260 |                                                              0.000
  171.35845 |                                                              0.000
  188.49429 |                                                              0.000
  205.63014 |*****************************                                 0.067
  222.76598 |                                                              0.000
  239.90183 |                                                              0.000
  257.03767 |                                                              0.000
  274.17352 |********************************************                  0.100
  291.30936 |                                                              0.000
  308.44521 |                                                              0.000
  325.58105 |                                                              0.000
  342.71690 |*****************************                                 0.067
  359.85274 |                                                              0.000
  376.98859 |                                                              0.000
  394.12443 |                                                              0.000
  411.26028 |*****************************                                 0.067
  428.39612 |                                                              0.000
  445.53197 |                                                              0.000
  462.66781 |********************************************                  0.100
  479.80366 |                                                              0.000
  496.93950 |                                                              0.000
  514.07535 |                                                              0.000
  531.21119 |                                                              0.000
  548.34704 |                                                              0.000
  565.48288 |                                                              0.000
  582.61873 |                                                              0.000
  599.75457 |                                                              0.000
  616.89042 |**************                                                0.033
  634.02626 |                                                              0.000
  651.16210 |                                                              0.000
  668.29795 |                                                              0.000
  685.43379 |                                                              0.000
  702.56964 |                                                              0.000
  719.70548 |                                                              0.000
  736.84133 |**************                                                0.033
  753.97717 |                                                              0.000
  771.11302 |                                                              0.000
  788.24886 |                                                              0.000
  805.38471 |                                                              0.000
  822.52055 |                                                              0.000
  839.65640 |                                                              0.000
  856.79224 |                                                              0.000
  873.92809 |                                                              0.000
  891.06393 |                                                              0.000
  908.19978 |                                                              0.000
  925.33562 |                                                              0.000
  942.47147 |                                                              0.000
  959.60731 |**************                                                0.033
  976.74316 |                                                              0.000
  993.87900 |                                                              0.000
 1011.01485 |                                                              0.000
 1028.15069 |**************                                                0.033
 1045.28654 |                                                              0.000
 1062.42238 |**************                                                0.033
 1079.55823 |*****************************                                 0.067
--------------------------------------------------------------------------------




  Phonon density of states written as mgo_chain.dens                



  Phonon dispersion curves : 

--------------------------------------------------------------------------------
  Section number =   1
--------------------------------------------------------------------------------
  Frequency (cm-1) Phonon dispersion                                            
--------------------------------------------------------------------------------
  1082.10   |      *     *             *     *      *            *      *
  1037.01   |                                                            
   991.92   |                                                            
   946.84   |                   *                          *             
   901.75   |                                                            
   856.66   |                                                            
   811.57   |                                                            
   766.49   |                   *                          *             
   721.40   |                                                            
   676.31   |                                                            
   631.22   |                                                            
   586.14   |                                                            
   541.05   |                                                            
   495.96   |                                                            
   450.87   |            *             *            *            *       
   405.79   |      *                         *                          *
   360.70   |                                                            
   315.61   |            *             *            *            *       
   270.52   |                                                            
   225.44   |                                                            
   180.35   |                   *                          *             
   135.26   |                   *                          *             
    90.17   |                                                            
    45.09   |                                                            
     0.00   |            *             *            *            *       
--------------------------------------------------------------------------------


  Phonon dispersion written as mgo_chain.disp                

  Time to end of properties =       0.0156 seconds


  Peak dynamic memory used =       0.49 MB 


  Timing analysis for GULP :

--------------------------------------------------------------------------------
  Task / Subroutine                                          Time (Seconds)
--------------------------------------------------------------------------------
  Calculation of phonons                                          0.0156
  Calculation of scattering                                       0.0000
--------------------------------------------------------------------------------
  Total CPU time                                                  0.0156
--------------------------------------------------------------------------------


  Job Finished at 12:57.29 21st November   2022                               

