********************************************************************************
*                       GENERAL UTILITY LATTICE PROGRAM                        *
*                                 Julian Gale                                  *
*                      Nanochemistry Research Institute                        *
*                           Department of Chemistry                            *
*                    Curtin University, Western Australia                      *
********************************************************************************
* Version = 4.3.5 * Last modified = 16th December 2015                         *
********************************************************************************
*  optimise     - perform optimisation run                                     *
*  conp         - constant pressure calculation                                *
********************************************************************************
* ASE calculation                                                              *
********************************************************************************


  Job Started  at 00:06.54 22nd November   2022                               

  Number of CPUs =     1


  Total number of configurations input =   1

********************************************************************************
*  Input for Configuration =   1                                               *
********************************************************************************

  Formula = MgO                                                         

  Number of irreducible atoms/shells =       2


  Total number atoms/shells =       2

  Dimensionality = 3               :  Bulk   



  Cartesian lattice vectors (Angstroms) :

       14.142136    0.000000    0.000000
        7.071068   12.247449    0.000000
        7.071068    4.082483   11.547006

  Cell parameters (Angstroms/Degrees):

  a =      14.1421    alpha =  60.0000
  b =      14.1421    beta  =  60.0000
  c =      14.1421    gamma =  60.0000

  Initial cell volume =        2000.000160 Angs**3

  Temperature of configuration =  0.000     K 

  Pressure of configuration =         0.000 GPa 

  Fractional coordinates of asymmetric unit :

--------------------------------------------------------------------------------
   No.  Atomic       x           y          z         Charge      Occupancy
        Label      (Frac)      (Frac)     (Frac)        (e)         (Frac)  
--------------------------------------------------------------------------------
      1 Mg    c    0.000000    0.000000    0.000000     2.00000    1.000000    
      2 O     c    0.500000 *  0.500000 *  0.500000 *  -2.00000    1.000000    
--------------------------------------------------------------------------------



********************************************************************************
*  General input information                                                   *
********************************************************************************

  Species output for all configurations : 

--------------------------------------------------------------------------------
  Species    Type    Atomic    Atomic    Charge       Radii (Angs)     Library
                     Number     Mass       (e)     Cova   Ionic  VDW   Symbol
--------------------------------------------------------------------------------
    Mg       Core       12      24.31   2.000000   1.100  0.000  1.640          
    O        Core        8      16.00  -2.000000   0.730  0.000  1.360          
--------------------------------------------------------------------------------


  Lattice summation method               =    Ewald          (3-D)
                                         =    Parry          (2-D)
                                         =    Saunders et al (1-D)
  Accuracy factor for lattice sums       =   12.000


  Time limit = Infinity

  Maximum range for interatomic potentials =    100000.000000 Angstroms

  General interatomic potentials :

--------------------------------------------------------------------------------
Atom  Types   Potential         A         B         C         D     Cutoffs(Ang)
  1     2                                                            Min    Max 
--------------------------------------------------------------------------------
O    c Mg   c Buckingham    0.130E+04 0.300      0.00      0.00     0.000 12.000
O    c O    c Buckingham    0.228E+05 0.149      27.9      0.00     0.000 12.000
--------------------------------------------------------------------------------

********************************************************************************
*  Output for configuration   1                                                *
********************************************************************************


  Components of energy : 

--------------------------------------------------------------------------------
  Interatomic potentials     =           0.00000000 eV
  Monopole - monopole (real) =          -1.07739871 eV
  Monopole - monopole (recip)=          -8.98840420 eV
  Monopole - monopole (total)=         -10.06580291 eV
--------------------------------------------------------------------------------
  Total lattice energy       =         -10.06580291 eV
--------------------------------------------------------------------------------
  Total lattice energy       =            -971.1961 kJ/(mole unit cells)
--------------------------------------------------------------------------------


  Number of variables =        9

  Maximum number of calculations  =          1000
  Maximum Hessian update interval =            10
  Maximum step size               =   1.000000000
  Maximum parameter tolerance     =   0.000010000
  Maximum function  tolerance     =   0.000010000
  Maximum gradient  tolerance     =   0.001000000
  Maximum gradient  component     =   0.010000000

  Symmetry not applied to optimisation

  Cell parameters to be optimised using strains

  Newton-Raphson optimiser to be used

  BFGS hessian update to be used

  Dumpfile to be written after every cycle

  Start of bulk optimisation :

  Cycle:      0 Energy:       -10.065803  Gnorm:      0.645722  CPU:    0.016
  ** Hessian calculated **
  Cycle:      1 Energy:       -14.773049  Gnorm:      1.773238  CPU:    0.016
  Cycle:      2 Energy:       -15.355342  Gnorm:      2.974474  CPU:    0.016
  Cycle:      3 Energy:       -15.443673  Gnorm:      3.416450  CPU:    0.016
  Cycle:      4 Energy:       -15.465212  Gnorm:      3.653921  CPU:    0.016
  Cycle:      5 Energy:       -15.466972  Gnorm:      3.722263  CPU:    0.031
  Cycle:      6 Energy:       -15.467356  Gnorm:      3.754484  CPU:    0.031
  Cycle:      7 Energy:       -15.467441  Gnorm:      3.769704  CPU:    0.031
  Cycle:      8 Energy:       -15.467464  Gnorm:      3.777560  CPU:    0.047
  Cycle:      9 Energy:       -15.467470  Gnorm:      3.781849  CPU:    0.047
  Cycle:     10 Energy:       -15.467472  Gnorm:      3.784298  CPU:    0.047
  ** Hessian calculated **
  Cycle:     11 Energy:       -23.126796  Gnorm:      1.497005  CPU:    0.047
  Cycle:     12 Energy:       -38.785541  Gnorm:      0.441212  CPU:    0.047
  ** Hessian calculated **
  Cycle:     13 Energy:       -39.550048  Gnorm:      0.309488  CPU:    0.047
  ** Hessian calculated **
  Cycle:     14 Energy:       -39.816930  Gnorm:      0.329253  CPU:    0.063
  Cycle:     15 Energy:       -39.880773  Gnorm:      0.209098  CPU:    0.063
  Cycle:     16 Energy:       -40.876728  Gnorm:      0.563891  CPU:    0.063
  Cycle:     17 Energy:       -40.900032  Gnorm:      0.548784  CPU:    0.078
  Cycle:     18 Energy:       -41.074614  Gnorm:      0.037286  CPU:    0.078
  Cycle:     19 Energy:       -41.075290  Gnorm:      0.005572  CPU:    0.078
  ** Hessian calculated **
  Cycle:     20 Energy:       -41.075318  Gnorm:      0.000018  CPU:    0.078
  Cycle:     21 Energy:       -41.075318  Gnorm:      0.000018  CPU:    0.094
  ** Hessian calculated **


  **** Optimisation achieved ****


  Final energy =     -41.07531762 eV
  Final Gnorm  =       0.00000000

  Components of energy : 

--------------------------------------------------------------------------------
  Interatomic potentials     =           6.72068219 eV
  Monopole - monopole (real) =          -5.11587094 eV
  Monopole - monopole (recip)=         -42.68012887 eV
  Monopole - monopole (total)=         -47.79599981 eV
--------------------------------------------------------------------------------
  Total lattice energy       =         -41.07531762 eV
--------------------------------------------------------------------------------
  Total lattice energy       =           -3963.1403 kJ/(mole unit cells)
--------------------------------------------------------------------------------

  Final fractional coordinates of atoms :

--------------------------------------------------------------------------------
   No.  Atomic        x           y          z          Radius
        Label       (Frac)      (Frac)     (Frac)       (Angs) 
--------------------------------------------------------------------------------
     1  Mg    c     0.000000    0.000000    0.000000    0.000000
     2  O     c     0.500000    0.500000    0.500000    0.000000
--------------------------------------------------------------------------------

  Final Cartesian lattice vectors (Angstroms) :

        2.978324    0.000000    0.000000
        1.489162    2.579304    0.000000
        1.489162    0.859768    2.431791


  Final cell parameters and derivatives :

--------------------------------------------------------------------------------
       a            2.978324 Angstrom     dE/de1(xx)     0.000000 eV/strain
       b            2.978324 Angstrom     dE/de2(yy)    -0.000000 eV/strain
       c            2.978324 Angstrom     dE/de3(zz)    -0.000000 eV/strain
       alpha       60.000000 Degrees      dE/de4(yz)    -0.000000 eV/strain
       beta        60.000000 Degrees      dE/de5(xz)    -0.000000 eV/strain
       gamma       60.000000 Degrees      dE/de6(xy)    -0.000000 eV/strain
--------------------------------------------------------------------------------

  Primitive cell volume =            18.681023 Angs**3

  Density of cell =      3.583176 g/cm**3

  Non-primitive cell volume =            18.681023 Angs**3


  Final internal derivatives :

--------------------------------------------------------------------------------
   No.  Atomic          a             b             c           Radius
        Label          (eV)          (eV)          (eV)        (eV/Angs)
--------------------------------------------------------------------------------
      1 Mg    c       0.000000      0.000000      0.000000      0.000000
      2 O     c       0.000000      0.000000      0.000000      0.000000
--------------------------------------------------------------------------------
  Maximum abs         0.000000      0.000000      0.000000      0.000000
--------------------------------------------------------------------------------


  Time to end of optimisation =       0.1094 seconds


  Peak dynamic memory used =       0.58 MB 


  Timing analysis for GULP :

--------------------------------------------------------------------------------
  Task / Subroutine                                          Time (Seconds)
--------------------------------------------------------------------------------
  Calculation of reciprocal space energy and derivatives          0.0156
  Calculation of real space energy and derivatives                0.0469
--------------------------------------------------------------------------------
  Total CPU time                                                  0.1094
--------------------------------------------------------------------------------


  Dump files written with root name mgo_opt.grs                                             


  Job Finished at 00:06.55 22nd November   2022                               

