********************************************************************************
*                       GENERAL UTILITY LATTICE PROGRAM                        *
*                                 Julian Gale                                  *
*                      Nanochemistry Research Institute                        *
*                           Department of Chemistry                            *
*                    Curtin University, Western Australia                      *
********************************************************************************
* Version = 4.3.5 * Last modified = 16th December 2015                         *
********************************************************************************
*  single       - perform a single point run                                   *
*  conp         - constant pressure calculation                                *
*  phonon       - calculate phonons for final geometry                         *
********************************************************************************
* ASE calculation                                                              *
********************************************************************************


  Job Started  at 14:03.18 21st November   2022                               

  Number of CPUs =     1


  Total number of configurations input =   1

********************************************************************************
*  Input for Configuration =   1                                               *
********************************************************************************

  Formula = MgO                                                         

  Number of irreducible atoms/shells =       2


  Total number atoms/shells =       2

  Dimensionality = 3               :  Bulk   



  Cartesian lattice vectors (Angstroms) :

        2.978334    0.000000    0.000000
        1.489167    2.579313    0.000000
        1.489167    0.859771    2.431800

  Cell parameters (Angstroms/Degrees):

  a =       2.9783    alpha =  60.0000
  b =       2.9783    beta  =  60.0000
  c =       2.9783    gamma =  60.0000

  Initial cell volume =          18.681219 Angs**3

  Shrinking factors =      3     3     3

  Temperature of configuration =  0.000     K 

  Pressure of configuration =         0.000 GPa 

  Fractional coordinates of asymmetric unit :

--------------------------------------------------------------------------------
   No.  Atomic       x           y          z         Charge      Occupancy
        Label      (Frac)      (Frac)     (Frac)        (e)         (Frac)  
--------------------------------------------------------------------------------
      1 Mg    c    0.000000    0.000000    0.000000     2.00000    1.000000    
      2 O     c    0.500000    0.500000    0.500000    -2.00000    1.000000    
--------------------------------------------------------------------------------


  Brillouin zone sampling points :

--------------------------------------------------------------------------------
  Point number          x          y          z            Weight
--------------------------------------------------------------------------------
        1           0.166667   0.166667   0.166667         0.0741
        2           0.166667   0.166667   0.500000         0.0741
        3           0.166667   0.166667   0.833333         0.0741
        4           0.166667   0.500000   0.166667         0.0741
        5           0.166667   0.500000   0.500000         0.0741
        6           0.166667   0.500000   0.833333         0.0741
        7           0.166667   0.833333   0.166667         0.0741
        8           0.166667   0.833333   0.500000         0.0741
        9           0.166667   0.833333   0.833333         0.0741
       10           0.500000   0.166667   0.166667         0.0370
       11           0.500000   0.166667   0.500000         0.0370
       12           0.500000   0.166667   0.833333         0.0370
       13           0.500000   0.500000   0.166667         0.0370
       14           0.500000   0.500000   0.500000         0.0370
       15           0.500000   0.500000   0.833333         0.0370
       16           0.500000   0.833333   0.166667         0.0370
       17           0.500000   0.833333   0.500000         0.0370
       18           0.500000   0.833333   0.833333         0.0370
--------------------------------------------------------------------------------


********************************************************************************
*  General input information                                                   *
********************************************************************************

  Species output for all configurations : 

--------------------------------------------------------------------------------
  Species    Type    Atomic    Atomic    Charge       Radii (Angs)     Library
                     Number     Mass       (e)     Cova   Ionic  VDW   Symbol
--------------------------------------------------------------------------------
    Mg       Core       12      24.31   2.000000   1.100  0.000  1.640          
    O        Core        8      16.00  -2.000000   0.730  0.000  1.360          
--------------------------------------------------------------------------------


  Lattice summation method               =    Ewald          (3-D)
                                         =    Parry          (2-D)
                                         =    Saunders et al (1-D)
  Accuracy factor for lattice sums       =   12.000


  Time limit = Infinity

  Maximum range for interatomic potentials =    100000.000000 Angstroms

  General interatomic potentials :

--------------------------------------------------------------------------------
Atom  Types   Potential         A         B         C         D     Cutoffs(Ang)
  1     2                                                            Min    Max 
--------------------------------------------------------------------------------
O    c Mg   c Buckingham    0.130E+04 0.300      0.00      0.00     0.000 12.000
O    c O    c Buckingham    0.228E+05 0.149      27.9      0.00     0.000 12.000
--------------------------------------------------------------------------------

********************************************************************************
*  Output for configuration   1                                                *
********************************************************************************


  Components of energy : 

--------------------------------------------------------------------------------
  Interatomic potentials     =           6.72051513 eV
  Monopole - monopole (real) =          -5.11585306 eV
  Monopole - monopole (recip)=         -42.67997969 eV
  Monopole - monopole (total)=         -47.79583275 eV
--------------------------------------------------------------------------------
  Total lattice energy       =         -41.07531762 eV
--------------------------------------------------------------------------------
  Total lattice energy       =           -3963.1403 kJ/(mole unit cells)
--------------------------------------------------------------------------------

  Born effective charge tensors : 

-------------------------------------------------------------------------------
  Atom             x           y             z
-------------------------------------------------------------------------------
   1 Mg    x       2.0000      0.0000      0.0000
           y       0.0000      2.0000      0.0000
           z       0.0000      0.0000      2.0000
-------------------------------------------------------------------------------
   2 O     x      -2.0000      0.0000      0.0000
           y       0.0000     -2.0000      0.0000
           z       0.0000      0.0000     -2.0000
-------------------------------------------------------------------------------




  Elastic Constant Matrix: (Units=GPa)

-------------------------------------------------------------------------------
  Indices      1         2         3         4         5         6    
-------------------------------------------------------------------------------
       1    430.3381  143.4444  124.0198   27.4705   -0.0000   -0.0000
       2    143.4444  430.3381  124.0198  -27.4705   -0.0000    0.0000
       3    124.0198  124.0198  449.7626    0.0000    0.0000    0.0000
       4     27.4705  -27.4705    0.0000  124.0223   -0.0000   -0.0000
       5     -0.0000   -0.0000    0.0000   -0.0000  124.0223   27.4705
       6     -0.0000    0.0000    0.0000   -0.0000   27.4705  143.4468
-------------------------------------------------------------------------------


  Elastic Compliance Matrix: (Units=1/GPa)

-------------------------------------------------------------------------------
  Indices      1         2         3         4         5         6    
-------------------------------------------------------------------------------
       1    0.002809 -0.000831 -0.000546 -0.000806  0.000000  0.000000
       2   -0.000831  0.002809 -0.000546  0.000806  0.000000 -0.000000
       3   -0.000546 -0.000546  0.002524 -0.000000 -0.000000 -0.000000
       4   -0.000806  0.000806 -0.000000  0.008420 -0.000000  0.000000
       5    0.000000  0.000000 -0.000000 -0.000000  0.008420 -0.001613
       6    0.000000 -0.000000 -0.000000  0.000000 -0.001613  0.007280
-------------------------------------------------------------------------------

  Mechanical properties :

-------------------------------------------------------------------------------
  Convention :                    Reuss         Voigt         Hill
-------------------------------------------------------------------------------
  Bulk  Modulus (GPa)     =     232.60075     232.60075     232.60075
  Shear Modulus (GPa)     =     133.19011     139.56191     136.37601
-------------------------------------------------------------------------------
  Velocity S-wave (km/s)  =       6.09683       6.24096       6.16932
  Velocity P-wave (km/s)  =      10.69940      10.80963      10.75466
-------------------------------------------------------------------------------
  Compressibility (1/GPa) =    0.00429921
-------------------------------------------------------------------------------
  Stress axis :                     x             y             z
-------------------------------------------------------------------------------
  Youngs Moduli (GPa)     =     355.95460     355.95460     396.15028
-------------------------------------------------------------------------------
  Poissons Ratio (x)      =                     0.29568       0.21614
  Poissons Ratio (y)      =       0.29568                     0.21614
  Poissons Ratio (z)      =       0.19421       0.19421
-------------------------------------------------------------------------------


  Piezoelectric Strain Matrix: (Units=C/m**2)

-------------------------------------------------------------------------------
  Indices      1         2         3         4         5         6    
-------------------------------------------------------------------------------
       x    -0.00000  -0.00000   0.00000  -0.00000  -0.00000  -0.00000
       y    -0.00000   0.00000   0.00000   0.00000  -0.00000  -0.00000
       z    -0.00000   0.00000  -0.00000   0.00000   0.00000  -0.00000
-------------------------------------------------------------------------------


  Piezoelectric Stress Matrix: (Units=10**-11 C/N)

-------------------------------------------------------------------------------
  Indices      1         2         3         4         5         6    
-------------------------------------------------------------------------------
       x    -0.00000  -0.00000   0.00000  -0.00000  -0.00000  -0.00000
       y    -0.00000   0.00000   0.00000   0.00000  -0.00000  -0.00000
       z    -0.00000   0.00000  -0.00000   0.00000   0.00000  -0.00000
-------------------------------------------------------------------------------


  Static dielectric constant tensor : 

-------------------------------------------------------------------------------
              x         y         z
-------------------------------------------------------------------------------
       x     7.83310   0.00000   0.00000
       y     0.00000   7.83310   0.00000
       z     0.00000   0.00000   7.83310
--------------------------------------------------------------------------------

  Static refractive indices : 

-------------------------------------------------------------------------------
    1 =    2.79877      2 =    2.79877      3 =    2.79877
-------------------------------------------------------------------------------


  Phonon Calculation : 

  Number of k points for this configuration =       18

--------------------------------------------------------------------------------
  K point      1 =   0.166667  0.166667  0.166667  Weight =    0.074
--------------------------------------------------------------------------------

  Frequencies (cm-1) [NB: Negative implies an imaginary mode]:

  130.12  130.12  255.44  393.39  393.39 1074.60


--------------------------------------------------------------------------------
  K point      2 =   0.166667  0.166667  0.500000  Weight =    0.074
--------------------------------------------------------------------------------

  Frequencies (cm-1) [NB: Negative implies an imaginary mode]:

  282.30  350.98  358.44  436.54  551.77  845.87


--------------------------------------------------------------------------------
  K point      3 =   0.166667  0.166667  0.833333  Weight =    0.074
--------------------------------------------------------------------------------

  Frequencies (cm-1) [NB: Negative implies an imaginary mode]:

  248.88  270.49  404.45  412.96  422.73  949.20


--------------------------------------------------------------------------------
  K point      4 =   0.166667  0.500000  0.166667  Weight =    0.074
--------------------------------------------------------------------------------

  Frequencies (cm-1) [NB: Negative implies an imaginary mode]:

  282.30  350.98  358.44  436.54  551.77  845.87


--------------------------------------------------------------------------------
  K point      5 =   0.166667  0.500000  0.500000  Weight =    0.074
--------------------------------------------------------------------------------

  Frequencies (cm-1) [NB: Negative implies an imaginary mode]:

  327.14  397.21  435.84  472.76  495.52  782.36


--------------------------------------------------------------------------------
  K point      6 =   0.166667  0.500000  0.833333  Weight =    0.074
--------------------------------------------------------------------------------

  Frequencies (cm-1) [NB: Negative implies an imaginary mode]:

  345.29  418.41  423.91  474.58  609.14  682.19


--------------------------------------------------------------------------------
  K point      7 =   0.166667  0.833333  0.166667  Weight =    0.074
--------------------------------------------------------------------------------

  Frequencies (cm-1) [NB: Negative implies an imaginary mode]:

  248.88  270.49  404.45  412.96  422.73  949.20


--------------------------------------------------------------------------------
  K point      8 =   0.166667  0.833333  0.500000  Weight =    0.074
--------------------------------------------------------------------------------

  Frequencies (cm-1) [NB: Negative implies an imaginary mode]:

  345.29  418.41  423.91  474.58  609.14  682.19


--------------------------------------------------------------------------------
  K point      9 =   0.166667  0.833333  0.833333  Weight =    0.074
--------------------------------------------------------------------------------

  Frequencies (cm-1) [NB: Negative implies an imaginary mode]:

  248.88  270.49  404.45  412.96  422.73  949.20


--------------------------------------------------------------------------------
  K point     10 =   0.500000  0.166667  0.166667  Weight =    0.037
--------------------------------------------------------------------------------

  Frequencies (cm-1) [NB: Negative implies an imaginary mode]:

  282.30  350.98  358.44  436.54  551.77  845.87


--------------------------------------------------------------------------------
  K point     11 =   0.500000  0.166667  0.500000  Weight =    0.037
--------------------------------------------------------------------------------

  Frequencies (cm-1) [NB: Negative implies an imaginary mode]:

  327.14  397.21  435.84  472.76  495.52  782.36


--------------------------------------------------------------------------------
  K point     12 =   0.500000  0.166667  0.833333  Weight =    0.037
--------------------------------------------------------------------------------

  Frequencies (cm-1) [NB: Negative implies an imaginary mode]:

  345.29  418.41  423.91  474.58  609.14  682.19


--------------------------------------------------------------------------------
  K point     13 =   0.500000  0.500000  0.166667  Weight =    0.037
--------------------------------------------------------------------------------

  Frequencies (cm-1) [NB: Negative implies an imaginary mode]:

  327.14  397.21  435.84  472.76  495.52  782.36


--------------------------------------------------------------------------------
  K point     14 =   0.500000  0.500000  0.500000  Weight =    0.037
--------------------------------------------------------------------------------

  Frequencies (cm-1) [NB: Negative implies an imaginary mode]:

  288.46  288.46  351.73  351.73  676.21  818.80


--------------------------------------------------------------------------------
  K point     15 =   0.500000  0.500000  0.833333  Weight =    0.037
--------------------------------------------------------------------------------

  Frequencies (cm-1) [NB: Negative implies an imaginary mode]:

  327.14  397.21  435.84  472.76  495.52  782.36


--------------------------------------------------------------------------------
  K point     16 =   0.500000  0.833333  0.166667  Weight =    0.037
--------------------------------------------------------------------------------

  Frequencies (cm-1) [NB: Negative implies an imaginary mode]:

  345.29  418.41  423.91  474.58  609.14  682.19


--------------------------------------------------------------------------------
  K point     17 =   0.500000  0.833333  0.500000  Weight =    0.037
--------------------------------------------------------------------------------

  Frequencies (cm-1) [NB: Negative implies an imaginary mode]:

  327.14  397.21  435.84  472.76  495.52  782.36


--------------------------------------------------------------------------------
  K point     18 =   0.500000  0.833333  0.833333  Weight =    0.037
--------------------------------------------------------------------------------

  Frequencies (cm-1) [NB: Negative implies an imaginary mode]:

  282.30  350.98  358.44  436.54  551.77  845.87


--------------------------------------------------------------------------------
  Phonon properties (per mole of unit cells): Temperature =      0.000 K
--------------------------------------------------------------------------------
  Zero point energy            =        0.174321 eV
--------------------------------------------------------------------------------

  Phonon density of states : 

--------------------------------------------------------------------------------
 Frequency (cm-1) Density of States                                             
--------------------------------------------------------------------------------
    0.00000 |                                                              0.000
   16.79059 |                                                              0.000
   33.58118 |                                                              0.000
   50.37177 |                                                              0.000
   67.16235 |                                                              0.000
   83.95294 |                                                              0.000
  100.74353 |                                                              0.000
  117.53412 |**********                                                    0.025
  134.32471 |                                                              0.000
  151.11530 |                                                              0.000
  167.90589 |                                                              0.000
  184.69648 |                                                              0.000
  201.48706 |                                                              0.000
  218.27765 |                                                              0.000
  235.06824 |***************                                               0.037
  251.85883 |*****                                                         0.012
  268.64942 |******************************                                0.074
  285.44001 |*****                                                         0.012
  302.23060 |                                                              0.000
  319.02119 |***************                                               0.037
  335.81177 |***********************************                           0.086
  352.60236 |***************                                               0.037
  369.39295 |                                                              0.000
  386.18354 |*************************                                     0.062
  402.97413 |*********************************************                 0.111
  419.76472 |************************************************************  0.148
  436.55531 |                                                              0.000
  453.34589 |                                                              0.000
  470.13648 |******************************                                0.074
  486.92707 |***************                                               0.037
  503.71766 |                                                              0.000
  520.50825 |                                                              0.000
  537.29884 |***************                                               0.037
  554.08943 |                                                              0.000
  570.88002 |                                                              0.000
  587.67060 |                                                              0.000
  604.46119 |***************                                               0.037
  621.25178 |                                                              0.000
  638.04237 |                                                              0.000
  654.83296 |                                                              0.000
  671.62355 |*****************                                             0.043
  688.41414 |                                                              0.000
  705.20473 |                                                              0.000
  721.99531 |                                                              0.000
  738.78590 |                                                              0.000
  755.57649 |                                                              0.000
  772.36708 |***************                                               0.037
  789.15767 |                                                              0.000
  805.94826 |**                                                            0.006
  822.73885 |                                                              0.000
  839.52944 |***************                                               0.037
  856.32002 |                                                              0.000
  873.11061 |                                                              0.000
  889.90120 |                                                              0.000
  906.69179 |                                                              0.000
  923.48238 |                                                              0.000
  940.27297 |***************                                               0.037
  957.06356 |                                                              0.000
  973.85414 |                                                              0.000
  990.64473 |                                                              0.000
 1007.43532 |                                                              0.000
 1024.22591 |                                                              0.000
 1041.01650 |                                                              0.000
 1057.80709 |*****                                                         0.012
--------------------------------------------------------------------------------




  Phonon density of states written as mgo_ph_dos_3.dens             



  Time to end of properties =       0.0313 seconds


  Peak dynamic memory used =       0.47 MB 


  Timing analysis for GULP :

--------------------------------------------------------------------------------
  Task / Subroutine                                          Time (Seconds)
--------------------------------------------------------------------------------
  Calculation of real space energy and derivatives                0.0156
  Calculation of phonons                                          0.0156
  Calculation of scattering                                       0.0000
--------------------------------------------------------------------------------
  Total CPU time                                                  0.0313
--------------------------------------------------------------------------------


  Job Finished at 14:03.18 21st November   2022                               

