********************************************************************************
*                       GENERAL UTILITY LATTICE PROGRAM                        *
*                                 Julian Gale                                  *
*                      Nanochemistry Research Institute                        *
*                           Department of Chemistry                            *
*                    Curtin University, Western Australia                      *
********************************************************************************
* Version = 4.3.5 * Last modified = 16th December 2015                         *
********************************************************************************
*  single       - perform a single point run                                   *
*  conp         - constant pressure calculation                                *
*  phonon       - calculate phonons for final geometry                         *
********************************************************************************
* ASE calculation                                                              *
********************************************************************************


  Job Started  at 14:03.18 21st November   2022                               

  Number of CPUs =     1


  Total number of configurations input =   1

********************************************************************************
*  Input for Configuration =   1                                               *
********************************************************************************

  Formula = MgO                                                         

  Number of irreducible atoms/shells =       2


  Total number atoms/shells =       2

  Dimensionality = 3               :  Bulk   



  Cartesian lattice vectors (Angstroms) :

        2.978334    0.000000    0.000000
        1.489167    2.579313    0.000000
        1.489167    0.859771    2.431800

  Cell parameters (Angstroms/Degrees):

  a =       2.9783    alpha =  60.0000
  b =       2.9783    beta  =  60.0000
  c =       2.9783    gamma =  60.0000

  Initial cell volume =          18.681219 Angs**3

  Shrinking factors =      5     5     5

  Temperature of configuration =  0.000     K 

  Pressure of configuration =         0.000 GPa 

  Fractional coordinates of asymmetric unit :

--------------------------------------------------------------------------------
   No.  Atomic       x           y          z         Charge      Occupancy
        Label      (Frac)      (Frac)     (Frac)        (e)         (Frac)  
--------------------------------------------------------------------------------
      1 Mg    c    0.000000    0.000000    0.000000     2.00000    1.000000    
      2 O     c    0.500000    0.500000    0.500000    -2.00000    1.000000    
--------------------------------------------------------------------------------


  Brillouin zone sampling points :

--------------------------------------------------------------------------------
  Point number          x          y          z            Weight
--------------------------------------------------------------------------------
        1           0.100000   0.100000   0.100000         0.0160
        2           0.100000   0.100000   0.300000         0.0160
        3           0.100000   0.100000   0.500000         0.0160
        4           0.100000   0.100000   0.700000         0.0160
        5           0.100000   0.100000   0.900000         0.0160
        6           0.100000   0.300000   0.100000         0.0160
        7           0.100000   0.300000   0.300000         0.0160
        8           0.100000   0.300000   0.500000         0.0160
        9           0.100000   0.300000   0.700000         0.0160
       10           0.100000   0.300000   0.900000         0.0160
       11           0.100000   0.500000   0.100000         0.0160
       12           0.100000   0.500000   0.300000         0.0160
       13           0.100000   0.500000   0.500000         0.0160
       14           0.100000   0.500000   0.700000         0.0160
       15           0.100000   0.500000   0.900000         0.0160
       16           0.100000   0.700000   0.100000         0.0160
       17           0.100000   0.700000   0.300000         0.0160
       18           0.100000   0.700000   0.500000         0.0160
       19           0.100000   0.700000   0.700000         0.0160
       20           0.100000   0.700000   0.900000         0.0160
       21           0.100000   0.900000   0.100000         0.0160
       22           0.100000   0.900000   0.300000         0.0160
       23           0.100000   0.900000   0.500000         0.0160
       24           0.100000   0.900000   0.700000         0.0160
       25           0.100000   0.900000   0.900000         0.0160
       26           0.300000   0.100000   0.100000         0.0160
       27           0.300000   0.100000   0.300000         0.0160
       28           0.300000   0.100000   0.500000         0.0160
       29           0.300000   0.100000   0.700000         0.0160
       30           0.300000   0.100000   0.900000         0.0160
       31           0.300000   0.300000   0.100000         0.0160
       32           0.300000   0.300000   0.300000         0.0160
       33           0.300000   0.300000   0.500000         0.0160
       34           0.300000   0.300000   0.700000         0.0160
       35           0.300000   0.300000   0.900000         0.0160
       36           0.300000   0.500000   0.100000         0.0160
       37           0.300000   0.500000   0.300000         0.0160
       38           0.300000   0.500000   0.500000         0.0160
       39           0.300000   0.500000   0.700000         0.0160
       40           0.300000   0.500000   0.900000         0.0160
       41           0.300000   0.700000   0.100000         0.0160
       42           0.300000   0.700000   0.300000         0.0160
       43           0.300000   0.700000   0.500000         0.0160
       44           0.300000   0.700000   0.700000         0.0160
       45           0.300000   0.700000   0.900000         0.0160
       46           0.300000   0.900000   0.100000         0.0160
       47           0.300000   0.900000   0.300000         0.0160
       48           0.300000   0.900000   0.500000         0.0160
       49           0.300000   0.900000   0.700000         0.0160
       50           0.300000   0.900000   0.900000         0.0160
       51           0.500000   0.100000   0.100000         0.0080
       52           0.500000   0.100000   0.300000         0.0080
       53           0.500000   0.100000   0.500000         0.0080
       54           0.500000   0.100000   0.700000         0.0080
       55           0.500000   0.100000   0.900000         0.0080
       56           0.500000   0.300000   0.100000         0.0080
       57           0.500000   0.300000   0.300000         0.0080
       58           0.500000   0.300000   0.500000         0.0080
       59           0.500000   0.300000   0.700000         0.0080
       60           0.500000   0.300000   0.900000         0.0080
       61           0.500000   0.500000   0.100000         0.0080
       62           0.500000   0.500000   0.300000         0.0080
       63           0.500000   0.500000   0.500000         0.0080
       64           0.500000   0.500000   0.700000         0.0080
       65           0.500000   0.500000   0.900000         0.0080
       66           0.500000   0.700000   0.100000         0.0080
       67           0.500000   0.700000   0.300000         0.0080
       68           0.500000   0.700000   0.500000         0.0080
       69           0.500000   0.700000   0.700000         0.0080
       70           0.500000   0.700000   0.900000         0.0080
       71           0.500000   0.900000   0.100000         0.0080
       72           0.500000   0.900000   0.300000         0.0080
       73           0.500000   0.900000   0.500000         0.0080
       74           0.500000   0.900000   0.700000         0.0080
       75           0.500000   0.900000   0.900000         0.0080
--------------------------------------------------------------------------------


********************************************************************************
*  General input information                                                   *
********************************************************************************

  Species output for all configurations : 

--------------------------------------------------------------------------------
  Species    Type    Atomic    Atomic    Charge       Radii (Angs)     Library
                     Number     Mass       (e)     Cova   Ionic  VDW   Symbol
--------------------------------------------------------------------------------
    Mg       Core       12      24.31   2.000000   1.100  0.000  1.640          
    O        Core        8      16.00  -2.000000   0.730  0.000  1.360          
--------------------------------------------------------------------------------


  Lattice summation method               =    Ewald          (3-D)
                                         =    Parry          (2-D)
                                         =    Saunders et al (1-D)
  Accuracy factor for lattice sums       =   12.000


  Time limit = Infinity

  Maximum range for interatomic potentials =    100000.000000 Angstroms

  General interatomic potentials :

--------------------------------------------------------------------------------
Atom  Types   Potential         A         B         C         D     Cutoffs(Ang)
  1     2                                                            Min    Max 
--------------------------------------------------------------------------------
O    c Mg   c Buckingham    0.130E+04 0.300      0.00      0.00     0.000 12.000
O    c O    c Buckingham    0.228E+05 0.149      27.9      0.00     0.000 12.000
--------------------------------------------------------------------------------

********************************************************************************
*  Output for configuration   1                                                *
********************************************************************************


  Components of energy : 

--------------------------------------------------------------------------------
  Interatomic potentials     =           6.72051513 eV
  Monopole - monopole (real) =          -5.11585306 eV
  Monopole - monopole (recip)=         -42.67997969 eV
  Monopole - monopole (total)=         -47.79583275 eV
--------------------------------------------------------------------------------
  Total lattice energy       =         -41.07531762 eV
--------------------------------------------------------------------------------
  Total lattice energy       =           -3963.1403 kJ/(mole unit cells)
--------------------------------------------------------------------------------

  Born effective charge tensors : 

-------------------------------------------------------------------------------
  Atom             x           y             z
-------------------------------------------------------------------------------
   1 Mg    x       2.0000      0.0000      0.0000
           y       0.0000      2.0000      0.0000
           z       0.0000      0.0000      2.0000
-------------------------------------------------------------------------------
   2 O     x      -2.0000      0.0000      0.0000
           y       0.0000     -2.0000      0.0000
           z       0.0000      0.0000     -2.0000
-------------------------------------------------------------------------------




  Elastic Constant Matrix: (Units=GPa)

-------------------------------------------------------------------------------
  Indices      1         2         3         4         5         6    
-------------------------------------------------------------------------------
       1    430.3381  143.4444  124.0198   27.4705   -0.0000   -0.0000
       2    143.4444  430.3381  124.0198  -27.4705   -0.0000    0.0000
       3    124.0198  124.0198  449.7626    0.0000    0.0000    0.0000
       4     27.4705  -27.4705    0.0000  124.0223   -0.0000   -0.0000
       5     -0.0000   -0.0000    0.0000   -0.0000  124.0223   27.4705
       6     -0.0000    0.0000    0.0000   -0.0000   27.4705  143.4468
-------------------------------------------------------------------------------


  Elastic Compliance Matrix: (Units=1/GPa)

-------------------------------------------------------------------------------
  Indices      1         2         3         4         5         6    
-------------------------------------------------------------------------------
       1    0.002809 -0.000831 -0.000546 -0.000806  0.000000  0.000000
       2   -0.000831  0.002809 -0.000546  0.000806  0.000000 -0.000000
       3   -0.000546 -0.000546  0.002524 -0.000000 -0.000000 -0.000000
       4   -0.000806  0.000806 -0.000000  0.008420 -0.000000  0.000000
       5    0.000000  0.000000 -0.000000 -0.000000  0.008420 -0.001613
       6    0.000000 -0.000000 -0.000000  0.000000 -0.001613  0.007280
-------------------------------------------------------------------------------

  Mechanical properties :

-------------------------------------------------------------------------------
  Convention :                    Reuss         Voigt         Hill
-------------------------------------------------------------------------------
  Bulk  Modulus (GPa)     =     232.60075     232.60075     232.60075
  Shear Modulus (GPa)     =     133.19011     139.56191     136.37601
-------------------------------------------------------------------------------
  Velocity S-wave (km/s)  =       6.09683       6.24096       6.16932
  Velocity P-wave (km/s)  =      10.69940      10.80963      10.75466
-------------------------------------------------------------------------------
  Compressibility (1/GPa) =    0.00429921
-------------------------------------------------------------------------------
  Stress axis :                     x             y             z
-------------------------------------------------------------------------------
  Youngs Moduli (GPa)     =     355.95460     355.95460     396.15028
-------------------------------------------------------------------------------
  Poissons Ratio (x)      =                     0.29568       0.21614
  Poissons Ratio (y)      =       0.29568                     0.21614
  Poissons Ratio (z)      =       0.19421       0.19421
-------------------------------------------------------------------------------


  Piezoelectric Strain Matrix: (Units=C/m**2)

-------------------------------------------------------------------------------
  Indices      1         2         3         4         5         6    
-------------------------------------------------------------------------------
       x    -0.00000  -0.00000   0.00000  -0.00000  -0.00000  -0.00000
       y    -0.00000   0.00000   0.00000   0.00000  -0.00000  -0.00000
       z    -0.00000   0.00000  -0.00000   0.00000   0.00000  -0.00000
-------------------------------------------------------------------------------


  Piezoelectric Stress Matrix: (Units=10**-11 C/N)

-------------------------------------------------------------------------------
  Indices      1         2         3         4         5         6    
-------------------------------------------------------------------------------
       x    -0.00000  -0.00000   0.00000  -0.00000  -0.00000  -0.00000
       y    -0.00000   0.00000   0.00000   0.00000  -0.00000  -0.00000
       z    -0.00000   0.00000  -0.00000   0.00000   0.00000  -0.00000
-------------------------------------------------------------------------------


  Static dielectric constant tensor : 

-------------------------------------------------------------------------------
              x         y         z
-------------------------------------------------------------------------------
       x     7.83310   0.00000   0.00000
       y     0.00000   7.83310   0.00000
       z     0.00000   0.00000   7.83310
--------------------------------------------------------------------------------

  Static refractive indices : 

-------------------------------------------------------------------------------
    1 =    2.79877      2 =    2.79877      3 =    2.79877
-------------------------------------------------------------------------------


  Phonon Calculation : 

  Number of k points for this configuration =       75

--------------------------------------------------------------------------------
  K point      1 =   0.100000  0.100000  0.100000  Weight =    0.016
--------------------------------------------------------------------------------

  Frequencies (cm-1) [NB: Negative implies an imaginary mode]:

   79.74   79.74  153.56  397.48  397.48 1102.70


--------------------------------------------------------------------------------
  K point      2 =   0.100000  0.100000  0.300000  Weight =    0.016
--------------------------------------------------------------------------------

  Frequencies (cm-1) [NB: Negative implies an imaginary mode]:

  184.03  226.95  358.18  374.62  415.21 1014.46


--------------------------------------------------------------------------------
  K point      3 =   0.100000  0.100000  0.500000  Weight =    0.016
--------------------------------------------------------------------------------

  Frequencies (cm-1) [NB: Negative implies an imaginary mode]:

  285.48  308.65  354.97  393.18  620.28  836.41


--------------------------------------------------------------------------------
  K point      4 =   0.100000  0.100000  0.700000  Weight =    0.016
--------------------------------------------------------------------------------

  Frequencies (cm-1) [NB: Negative implies an imaginary mode]:

  263.40  281.51  380.64  386.38  538.83  900.98


--------------------------------------------------------------------------------
  K point      5 =   0.100000  0.100000  0.900000  Weight =    0.016
--------------------------------------------------------------------------------

  Frequencies (cm-1) [NB: Negative implies an imaginary mode]:

  161.57  163.22  270.04  400.48  406.45 1053.50


--------------------------------------------------------------------------------
  K point      6 =   0.100000  0.300000  0.100000  Weight =    0.016
--------------------------------------------------------------------------------

  Frequencies (cm-1) [NB: Negative implies an imaginary mode]:

  184.03  226.95  358.18  374.62  415.21 1014.46


--------------------------------------------------------------------------------
  K point      7 =   0.100000  0.300000  0.300000  Weight =    0.016
--------------------------------------------------------------------------------

  Frequencies (cm-1) [NB: Negative implies an imaginary mode]:

  245.17  257.92  376.11  420.98  421.49  963.05


--------------------------------------------------------------------------------
  K point      8 =   0.100000  0.300000  0.500000  Weight =    0.016
--------------------------------------------------------------------------------

  Frequencies (cm-1) [NB: Negative implies an imaginary mode]:

  315.71  379.71  415.57  456.19  496.32  817.42


--------------------------------------------------------------------------------
  K point      9 =   0.100000  0.300000  0.700000  Weight =    0.016
--------------------------------------------------------------------------------

  Frequencies (cm-1) [NB: Negative implies an imaginary mode]:

  322.70  391.86  420.26  476.00  575.72  738.14


--------------------------------------------------------------------------------
  K point     10 =   0.100000  0.300000  0.900000  Weight =    0.016
--------------------------------------------------------------------------------

  Frequencies (cm-1) [NB: Negative implies an imaginary mode]:

  251.55  309.57  380.76  426.92  448.07  927.34


--------------------------------------------------------------------------------
  K point     11 =   0.100000  0.500000  0.100000  Weight =    0.016
--------------------------------------------------------------------------------

  Frequencies (cm-1) [NB: Negative implies an imaginary mode]:

  285.48  308.65  354.97  393.18  620.28  836.41


--------------------------------------------------------------------------------
  K point     12 =   0.100000  0.500000  0.300000  Weight =    0.016
--------------------------------------------------------------------------------

  Frequencies (cm-1) [NB: Negative implies an imaginary mode]:

  315.71  379.71  415.57  456.19  496.32  817.42


--------------------------------------------------------------------------------
  K point     13 =   0.100000  0.500000  0.500000  Weight =    0.016
--------------------------------------------------------------------------------

  Frequencies (cm-1) [NB: Negative implies an imaginary mode]:

  338.01  371.76  449.13  470.84  483.28  790.74


--------------------------------------------------------------------------------
  K point     14 =   0.100000  0.500000  0.700000  Weight =    0.016
--------------------------------------------------------------------------------

  Frequencies (cm-1) [NB: Negative implies an imaginary mode]:

  352.51  426.04  445.35  476.02  523.37  727.96


--------------------------------------------------------------------------------
  K point     15 =   0.100000  0.500000  0.900000  Weight =    0.016
--------------------------------------------------------------------------------

  Frequencies (cm-1) [NB: Negative implies an imaginary mode]:

  307.87  354.83  378.20  426.79  641.71  762.33


--------------------------------------------------------------------------------
  K point     16 =   0.100000  0.700000  0.100000  Weight =    0.016
--------------------------------------------------------------------------------

  Frequencies (cm-1) [NB: Negative implies an imaginary mode]:

  263.40  281.51  380.64  386.38  538.83  900.98


--------------------------------------------------------------------------------
  K point     17 =   0.100000  0.700000  0.300000  Weight =    0.016
--------------------------------------------------------------------------------

  Frequencies (cm-1) [NB: Negative implies an imaginary mode]:

  322.70  391.86  420.26  476.00  575.72  738.14


--------------------------------------------------------------------------------
  K point     18 =   0.100000  0.700000  0.500000  Weight =    0.016
--------------------------------------------------------------------------------

  Frequencies (cm-1) [NB: Negative implies an imaginary mode]:

  352.51  426.04  445.35  476.02  523.37  727.96


--------------------------------------------------------------------------------
  K point     19 =   0.100000  0.700000  0.700000  Weight =    0.016
--------------------------------------------------------------------------------

  Frequencies (cm-1) [NB: Negative implies an imaginary mode]:

  306.29  332.11  437.83  445.16  452.04  861.51


--------------------------------------------------------------------------------
  K point     20 =   0.100000  0.700000  0.900000  Weight =    0.016
--------------------------------------------------------------------------------

  Frequencies (cm-1) [NB: Negative implies an imaginary mode]:

  251.55  309.57  380.76  426.92  448.07  927.34


--------------------------------------------------------------------------------
  K point     21 =   0.100000  0.900000  0.100000  Weight =    0.016
--------------------------------------------------------------------------------

  Frequencies (cm-1) [NB: Negative implies an imaginary mode]:

  161.57  163.22  270.04  400.48  406.45 1053.50


--------------------------------------------------------------------------------
  K point     22 =   0.100000  0.900000  0.300000  Weight =    0.016
--------------------------------------------------------------------------------

  Frequencies (cm-1) [NB: Negative implies an imaginary mode]:

  251.55  309.57  380.76  426.92  448.07  927.34


--------------------------------------------------------------------------------
  K point     23 =   0.100000  0.900000  0.500000  Weight =    0.016
--------------------------------------------------------------------------------

  Frequencies (cm-1) [NB: Negative implies an imaginary mode]:

  307.87  354.83  378.20  426.79  641.71  762.33


--------------------------------------------------------------------------------
  K point     24 =   0.100000  0.900000  0.700000  Weight =    0.016
--------------------------------------------------------------------------------

  Frequencies (cm-1) [NB: Negative implies an imaginary mode]:

  251.55  309.57  380.76  426.92  448.07  927.34


--------------------------------------------------------------------------------
  K point     25 =   0.100000  0.900000  0.900000  Weight =    0.016
--------------------------------------------------------------------------------

  Frequencies (cm-1) [NB: Negative implies an imaginary mode]:

  161.57  163.22  270.04  400.48  406.45 1053.50


--------------------------------------------------------------------------------
  K point     26 =   0.300000  0.100000  0.100000  Weight =    0.016
--------------------------------------------------------------------------------

  Frequencies (cm-1) [NB: Negative implies an imaginary mode]:

  184.03  226.95  358.18  374.62  415.21 1014.46


--------------------------------------------------------------------------------
  K point     27 =   0.300000  0.100000  0.300000  Weight =    0.016
--------------------------------------------------------------------------------

  Frequencies (cm-1) [NB: Negative implies an imaginary mode]:

  245.17  257.92  376.11  420.98  421.49  963.05


--------------------------------------------------------------------------------
  K point     28 =   0.300000  0.100000  0.500000  Weight =    0.016
--------------------------------------------------------------------------------

  Frequencies (cm-1) [NB: Negative implies an imaginary mode]:

  315.71  379.71  415.57  456.19  496.32  817.42


--------------------------------------------------------------------------------
  K point     29 =   0.300000  0.100000  0.700000  Weight =    0.016
--------------------------------------------------------------------------------

  Frequencies (cm-1) [NB: Negative implies an imaginary mode]:

  322.70  391.86  420.26  476.00  575.72  738.14


--------------------------------------------------------------------------------
  K point     30 =   0.300000  0.100000  0.900000  Weight =    0.016
--------------------------------------------------------------------------------

  Frequencies (cm-1) [NB: Negative implies an imaginary mode]:

  251.55  309.57  380.76  426.92  448.07  927.34


--------------------------------------------------------------------------------
  K point     31 =   0.300000  0.300000  0.100000  Weight =    0.016
--------------------------------------------------------------------------------

  Frequencies (cm-1) [NB: Negative implies an imaginary mode]:

  245.17  257.92  376.11  420.98  421.49  963.05


--------------------------------------------------------------------------------
  K point     32 =   0.300000  0.300000  0.300000  Weight =    0.016
--------------------------------------------------------------------------------

  Frequencies (cm-1) [NB: Negative implies an imaginary mode]:

  217.66  217.66  378.67  378.67  454.74  981.32


--------------------------------------------------------------------------------
  K point     33 =   0.300000  0.300000  0.500000  Weight =    0.016
--------------------------------------------------------------------------------

  Frequencies (cm-1) [NB: Negative implies an imaginary mode]:

  281.17  359.69  377.10  452.92  517.58  847.52


--------------------------------------------------------------------------------
  K point     34 =   0.300000  0.300000  0.700000  Weight =    0.016
--------------------------------------------------------------------------------

  Frequencies (cm-1) [NB: Negative implies an imaginary mode]:

  321.44  404.34  440.11  483.27  609.85  685.21


--------------------------------------------------------------------------------
  K point     35 =   0.300000  0.300000  0.900000  Weight =    0.016
--------------------------------------------------------------------------------

  Frequencies (cm-1) [NB: Negative implies an imaginary mode]:

  306.29  332.11  437.83  445.16  452.04  861.51


--------------------------------------------------------------------------------
  K point     36 =   0.300000  0.500000  0.100000  Weight =    0.016
--------------------------------------------------------------------------------

  Frequencies (cm-1) [NB: Negative implies an imaginary mode]:

  315.71  379.71  415.57  456.19  496.32  817.42


--------------------------------------------------------------------------------
  K point     37 =   0.300000  0.500000  0.300000  Weight =    0.016
--------------------------------------------------------------------------------

  Frequencies (cm-1) [NB: Negative implies an imaginary mode]:

  281.17  359.69  377.10  452.92  517.58  847.52


--------------------------------------------------------------------------------
  K point     38 =   0.300000  0.500000  0.500000  Weight =    0.016
--------------------------------------------------------------------------------

  Frequencies (cm-1) [NB: Negative implies an imaginary mode]:

  301.47  364.46  396.35  435.62  585.15  791.19


--------------------------------------------------------------------------------
  K point     39 =   0.300000  0.500000  0.700000  Weight =    0.016
--------------------------------------------------------------------------------

  Frequencies (cm-1) [NB: Negative implies an imaginary mode]:

  368.68  442.16  449.29  470.87  606.27  641.77


--------------------------------------------------------------------------------
  K point     40 =   0.300000  0.500000  0.900000  Weight =    0.016
--------------------------------------------------------------------------------

  Frequencies (cm-1) [NB: Negative implies an imaginary mode]:

  352.51  426.04  445.35  476.02  523.37  727.96


--------------------------------------------------------------------------------
  K point     41 =   0.300000  0.700000  0.100000  Weight =    0.016
--------------------------------------------------------------------------------

  Frequencies (cm-1) [NB: Negative implies an imaginary mode]:

  322.70  391.86  420.26  476.00  575.72  738.14


--------------------------------------------------------------------------------
  K point     42 =   0.300000  0.700000  0.300000  Weight =    0.016
--------------------------------------------------------------------------------

  Frequencies (cm-1) [NB: Negative implies an imaginary mode]:

  321.44  404.34  440.11  483.27  609.85  685.21


--------------------------------------------------------------------------------
  K point     43 =   0.300000  0.700000  0.500000  Weight =    0.016
--------------------------------------------------------------------------------

  Frequencies (cm-1) [NB: Negative implies an imaginary mode]:

  368.68  442.16  449.29  470.87  606.27  641.77


--------------------------------------------------------------------------------
  K point     44 =   0.300000  0.700000  0.700000  Weight =    0.016
--------------------------------------------------------------------------------

  Frequencies (cm-1) [NB: Negative implies an imaginary mode]:

  321.44  404.34  440.11  483.27  609.85  685.21


--------------------------------------------------------------------------------
  K point     45 =   0.300000  0.700000  0.900000  Weight =    0.016
--------------------------------------------------------------------------------

  Frequencies (cm-1) [NB: Negative implies an imaginary mode]:

  322.70  391.86  420.26  476.00  575.72  738.14


--------------------------------------------------------------------------------
  K point     46 =   0.300000  0.900000  0.100000  Weight =    0.016
--------------------------------------------------------------------------------

  Frequencies (cm-1) [NB: Negative implies an imaginary mode]:

  251.55  309.57  380.76  426.92  448.07  927.34


--------------------------------------------------------------------------------
  K point     47 =   0.300000  0.900000  0.300000  Weight =    0.016
--------------------------------------------------------------------------------

  Frequencies (cm-1) [NB: Negative implies an imaginary mode]:

  306.29  332.11  437.83  445.16  452.04  861.51


--------------------------------------------------------------------------------
  K point     48 =   0.300000  0.900000  0.500000  Weight =    0.016
--------------------------------------------------------------------------------

  Frequencies (cm-1) [NB: Negative implies an imaginary mode]:

  352.51  426.04  445.35  476.02  523.37  727.96


--------------------------------------------------------------------------------
  K point     49 =   0.300000  0.900000  0.700000  Weight =    0.016
--------------------------------------------------------------------------------

  Frequencies (cm-1) [NB: Negative implies an imaginary mode]:

  322.70  391.86  420.26  476.00  575.72  738.14


--------------------------------------------------------------------------------
  K point     50 =   0.300000  0.900000  0.900000  Weight =    0.016
--------------------------------------------------------------------------------

  Frequencies (cm-1) [NB: Negative implies an imaginary mode]:

  263.40  281.51  380.64  386.38  538.83  900.98


--------------------------------------------------------------------------------
  K point     51 =   0.500000  0.100000  0.100000  Weight =    0.008
--------------------------------------------------------------------------------

  Frequencies (cm-1) [NB: Negative implies an imaginary mode]:

  285.48  308.65  354.97  393.18  620.28  836.41


--------------------------------------------------------------------------------
  K point     52 =   0.500000  0.100000  0.300000  Weight =    0.008
--------------------------------------------------------------------------------

  Frequencies (cm-1) [NB: Negative implies an imaginary mode]:

  315.71  379.71  415.57  456.19  496.32  817.42


--------------------------------------------------------------------------------
  K point     53 =   0.500000  0.100000  0.500000  Weight =    0.008
--------------------------------------------------------------------------------

  Frequencies (cm-1) [NB: Negative implies an imaginary mode]:

  338.01  371.76  449.13  470.84  483.28  790.74


--------------------------------------------------------------------------------
  K point     54 =   0.500000  0.100000  0.700000  Weight =    0.008
--------------------------------------------------------------------------------

  Frequencies (cm-1) [NB: Negative implies an imaginary mode]:

  352.51  426.04  445.35  476.02  523.37  727.96


--------------------------------------------------------------------------------
  K point     55 =   0.500000  0.100000  0.900000  Weight =    0.008
--------------------------------------------------------------------------------

  Frequencies (cm-1) [NB: Negative implies an imaginary mode]:

  307.87  354.83  378.20  426.79  641.71  762.33


--------------------------------------------------------------------------------
  K point     56 =   0.500000  0.300000  0.100000  Weight =    0.008
--------------------------------------------------------------------------------

  Frequencies (cm-1) [NB: Negative implies an imaginary mode]:

  315.71  379.71  415.57  456.19  496.32  817.42


--------------------------------------------------------------------------------
  K point     57 =   0.500000  0.300000  0.300000  Weight =    0.008
--------------------------------------------------------------------------------

  Frequencies (cm-1) [NB: Negative implies an imaginary mode]:

  281.17  359.69  377.10  452.92  517.58  847.52


--------------------------------------------------------------------------------
  K point     58 =   0.500000  0.300000  0.500000  Weight =    0.008
--------------------------------------------------------------------------------

  Frequencies (cm-1) [NB: Negative implies an imaginary mode]:

  301.47  364.46  396.35  435.62  585.15  791.19


--------------------------------------------------------------------------------
  K point     59 =   0.500000  0.300000  0.700000  Weight =    0.008
--------------------------------------------------------------------------------

  Frequencies (cm-1) [NB: Negative implies an imaginary mode]:

  368.68  442.16  449.29  470.87  606.27  641.77


--------------------------------------------------------------------------------
  K point     60 =   0.500000  0.300000  0.900000  Weight =    0.008
--------------------------------------------------------------------------------

  Frequencies (cm-1) [NB: Negative implies an imaginary mode]:

  352.51  426.04  445.35  476.02  523.37  727.96


--------------------------------------------------------------------------------
  K point     61 =   0.500000  0.500000  0.100000  Weight =    0.008
--------------------------------------------------------------------------------

  Frequencies (cm-1) [NB: Negative implies an imaginary mode]:

  338.01  371.76  449.13  470.84  483.28  790.74


--------------------------------------------------------------------------------
  K point     62 =   0.500000  0.500000  0.300000  Weight =    0.008
--------------------------------------------------------------------------------

  Frequencies (cm-1) [NB: Negative implies an imaginary mode]:

  301.47  364.46  396.35  435.62  585.15  791.19


--------------------------------------------------------------------------------
  K point     63 =   0.500000  0.500000  0.500000  Weight =    0.008
--------------------------------------------------------------------------------

  Frequencies (cm-1) [NB: Negative implies an imaginary mode]:

  288.46  288.46  351.73  351.73  676.21  818.80


--------------------------------------------------------------------------------
  K point     64 =   0.500000  0.500000  0.700000  Weight =    0.008
--------------------------------------------------------------------------------

  Frequencies (cm-1) [NB: Negative implies an imaginary mode]:

  301.47  364.46  396.35  435.62  585.15  791.19


--------------------------------------------------------------------------------
  K point     65 =   0.500000  0.500000  0.900000  Weight =    0.008
--------------------------------------------------------------------------------

  Frequencies (cm-1) [NB: Negative implies an imaginary mode]:

  338.01  371.76  449.13  470.84  483.28  790.74


--------------------------------------------------------------------------------
  K point     66 =   0.500000  0.700000  0.100000  Weight =    0.008
--------------------------------------------------------------------------------

  Frequencies (cm-1) [NB: Negative implies an imaginary mode]:

  352.51  426.04  445.35  476.02  523.37  727.96


--------------------------------------------------------------------------------
  K point     67 =   0.500000  0.700000  0.300000  Weight =    0.008
--------------------------------------------------------------------------------

  Frequencies (cm-1) [NB: Negative implies an imaginary mode]:

  368.68  442.16  449.29  470.87  606.27  641.77


--------------------------------------------------------------------------------
  K point     68 =   0.500000  0.700000  0.500000  Weight =    0.008
--------------------------------------------------------------------------------

  Frequencies (cm-1) [NB: Negative implies an imaginary mode]:

  301.47  364.46  396.35  435.62  585.15  791.19


--------------------------------------------------------------------------------
  K point     69 =   0.500000  0.700000  0.700000  Weight =    0.008
--------------------------------------------------------------------------------

  Frequencies (cm-1) [NB: Negative implies an imaginary mode]:

  281.17  359.69  377.10  452.92  517.58  847.52


--------------------------------------------------------------------------------
  K point     70 =   0.500000  0.700000  0.900000  Weight =    0.008
--------------------------------------------------------------------------------

  Frequencies (cm-1) [NB: Negative implies an imaginary mode]:

  315.71  379.71  415.57  456.19  496.32  817.42


--------------------------------------------------------------------------------
  K point     71 =   0.500000  0.900000  0.100000  Weight =    0.008
--------------------------------------------------------------------------------

  Frequencies (cm-1) [NB: Negative implies an imaginary mode]:

  307.87  354.83  378.20  426.79  641.71  762.33


--------------------------------------------------------------------------------
  K point     72 =   0.500000  0.900000  0.300000  Weight =    0.008
--------------------------------------------------------------------------------

  Frequencies (cm-1) [NB: Negative implies an imaginary mode]:

  352.51  426.04  445.35  476.02  523.37  727.96


--------------------------------------------------------------------------------
  K point     73 =   0.500000  0.900000  0.500000  Weight =    0.008
--------------------------------------------------------------------------------

  Frequencies (cm-1) [NB: Negative implies an imaginary mode]:

  338.01  371.76  449.13  470.84  483.28  790.74


--------------------------------------------------------------------------------
  K point     74 =   0.500000  0.900000  0.700000  Weight =    0.008
--------------------------------------------------------------------------------

  Frequencies (cm-1) [NB: Negative implies an imaginary mode]:

  315.71  379.71  415.57  456.19  496.32  817.42


--------------------------------------------------------------------------------
  K point     75 =   0.500000  0.900000  0.900000  Weight =    0.008
--------------------------------------------------------------------------------

  Frequencies (cm-1) [NB: Negative implies an imaginary mode]:

  285.48  308.65  354.97  393.18  620.28  836.41


--------------------------------------------------------------------------------
  Phonon properties (per mole of unit cells): Temperature =      0.000 K
--------------------------------------------------------------------------------
  Zero point energy            =        0.174330 eV
--------------------------------------------------------------------------------

  Phonon density of states : 

--------------------------------------------------------------------------------
 Frequency (cm-1) Density of States                                             
--------------------------------------------------------------------------------
    0.00000 |                                                              0.000
   17.22970 |                                                              0.000
   34.45940 |                                                              0.000
   51.68910 |                                                              0.000
   68.91880 |***                                                           0.005
   86.14851 |                                                              0.000
  103.37821 |                                                              0.000
  120.60791 |                                                              0.000
  137.83761 |*                                                             0.003
  155.06731 |*********                                                     0.016
  172.29701 |****                                                          0.008
  189.52671 |                                                              0.000
  206.75641 |***                                                           0.005
  223.98612 |****                                                          0.008
  241.21582 |*******************                                           0.032
  258.44552 |*********                                                     0.016
  275.67522 |****************                                              0.027
  292.90492 |*****************************                                 0.048
  310.13462 |************************                                      0.040
  327.36432 |*********                                                     0.016
  344.59402 |*******************************                               0.051
  361.82373 |**************************************                        0.061
  379.05343 |********************************************                  0.072
  396.28313 |***********************                                       0.037
  413.51283 |***********************************************************   0.096
  430.74253 |**********************************                            0.056
  447.97223 |*****************************************                     0.067
  465.20193 |*****************************                                 0.048
  482.43163 |*******************                                           0.032
  499.66134 |                                                              0.000
  516.89104 |**************                                                0.024
  534.12074 |****                                                          0.008
  551.35044 |                                                              0.000
  568.58014 |**************                                                0.024
  585.80984 |                                                              0.000
  603.03954 |*********                                                     0.016
  620.26924 |****                                                          0.008
  637.49894 |*********                                                     0.016
  654.72865 |                                                              0.000
  671.95835 |*****                                                         0.009
  689.18805 |                                                              0.000
  706.41775 |                                                              0.000
  723.64745 |*******************                                           0.032
  740.87715 |                                                              0.000
  758.10685 |****                                                          0.008
  775.33655 |*********                                                     0.016
  792.56626 |                                                              0.000
  809.79596 |**********                                                    0.017
  827.02566 |****                                                          0.008
  844.25536 |****                                                          0.008
  861.48506 |****                                                          0.008
  878.71476 |                                                              0.000
  895.94446 |****                                                          0.008
  913.17416 |*********                                                     0.016
  930.40387 |                                                              0.000
  947.63357 |****                                                          0.008
  964.86327 |*                                                             0.003
  982.09297 |                                                              0.000
  999.32267 |****                                                          0.008
 1016.55237 |                                                              0.000
 1033.78207 |                                                              0.000
 1051.01177 |****                                                          0.008
 1068.24147 |                                                              0.000
 1085.47118 |*                                                             0.003
--------------------------------------------------------------------------------




  Phonon density of states written as mgo_ph_dos_5.dens             



  Time to end of properties =       0.0625 seconds


  Peak dynamic memory used =       0.48 MB 


  Timing analysis for GULP :

--------------------------------------------------------------------------------
  Task / Subroutine                                          Time (Seconds)
--------------------------------------------------------------------------------
  Calculation of reciprocal space energy and derivatives          0.0156
  Calculation of real space energy and derivatives                0.0313
  Calculation of phonons                                          0.0469
  Calculation of scattering                                       0.0000
--------------------------------------------------------------------------------
  Total CPU time                                                  0.0625
--------------------------------------------------------------------------------


  Job Finished at 14:03.18 21st November   2022                               

