********************************************************************************
*                       GENERAL UTILITY LATTICE PROGRAM                        *
*                                 Julian Gale                                  *
*                      Nanochemistry Research Institute                        *
*                           Department of Chemistry                            *
*                    Curtin University, Western Australia                      *
********************************************************************************
* Version = 4.3.5 * Last modified = 16th December 2015                         *
********************************************************************************
*  single       - perform a single point run                                   *
*  conp         - constant pressure calculation                                *
*  phonon       - calculate phonons for final geometry                         *
********************************************************************************
* ASE calculation                                                              *
********************************************************************************


  Job Started  at 14:03.19 21st November   2022                               

  Number of CPUs =     1


  Total number of configurations input =   1

********************************************************************************
*  Input for Configuration =   1                                               *
********************************************************************************

  Formula = MgO                                                         

  Number of irreducible atoms/shells =       2


  Total number atoms/shells =       2

  Dimensionality = 3               :  Bulk   



  Cartesian lattice vectors (Angstroms) :

        2.978334    0.000000    0.000000
        1.489167    2.579313    0.000000
        1.489167    0.859771    2.431800

  Cell parameters (Angstroms/Degrees):

  a =       2.9783    alpha =  60.0000
  b =       2.9783    beta  =  60.0000
  c =       2.9783    gamma =  60.0000

  Initial cell volume =          18.681219 Angs**3

  Shrinking factors =      6     6     6

  Temperature of configuration =  0.000     K 

  Pressure of configuration =         0.000 GPa 

  Fractional coordinates of asymmetric unit :

--------------------------------------------------------------------------------
   No.  Atomic       x           y          z         Charge      Occupancy
        Label      (Frac)      (Frac)     (Frac)        (e)         (Frac)  
--------------------------------------------------------------------------------
      1 Mg    c    0.000000    0.000000    0.000000     2.00000    1.000000    
      2 O     c    0.500000    0.500000    0.500000    -2.00000    1.000000    
--------------------------------------------------------------------------------


  Brillouin zone sampling points :

--------------------------------------------------------------------------------
  Point number          x          y          z            Weight
--------------------------------------------------------------------------------
        1           0.083333   0.083333   0.083333         0.0093
        2           0.083333   0.083333   0.250000         0.0093
        3           0.083333   0.083333   0.416667         0.0093
        4           0.083333   0.083333   0.583333         0.0093
        5           0.083333   0.083333   0.750000         0.0093
        6           0.083333   0.083333   0.916667         0.0093
        7           0.083333   0.250000   0.083333         0.0093
        8           0.083333   0.250000   0.250000         0.0093
        9           0.083333   0.250000   0.416667         0.0093
       10           0.083333   0.250000   0.583333         0.0093
       11           0.083333   0.250000   0.750000         0.0093
       12           0.083333   0.250000   0.916667         0.0093
       13           0.083333   0.416667   0.083333         0.0093
       14           0.083333   0.416667   0.250000         0.0093
       15           0.083333   0.416667   0.416667         0.0093
       16           0.083333   0.416667   0.583333         0.0093
       17           0.083333   0.416667   0.750000         0.0093
       18           0.083333   0.416667   0.916667         0.0093
       19           0.083333   0.583333   0.083333         0.0093
       20           0.083333   0.583333   0.250000         0.0093
       21           0.083333   0.583333   0.416667         0.0093
       22           0.083333   0.583333   0.583333         0.0093
       23           0.083333   0.583333   0.750000         0.0093
       24           0.083333   0.583333   0.916667         0.0093
       25           0.083333   0.750000   0.083333         0.0093
       26           0.083333   0.750000   0.250000         0.0093
       27           0.083333   0.750000   0.416667         0.0093
       28           0.083333   0.750000   0.583333         0.0093
       29           0.083333   0.750000   0.750000         0.0093
       30           0.083333   0.750000   0.916667         0.0093
       31           0.083333   0.916667   0.083333         0.0093
       32           0.083333   0.916667   0.250000         0.0093
       33           0.083333   0.916667   0.416667         0.0093
       34           0.083333   0.916667   0.583333         0.0093
       35           0.083333   0.916667   0.750000         0.0093
       36           0.083333   0.916667   0.916667         0.0093
       37           0.250000   0.083333   0.083333         0.0093
       38           0.250000   0.083333   0.250000         0.0093
       39           0.250000   0.083333   0.416667         0.0093
       40           0.250000   0.083333   0.583333         0.0093
       41           0.250000   0.083333   0.750000         0.0093
       42           0.250000   0.083333   0.916667         0.0093
       43           0.250000   0.250000   0.083333         0.0093
       44           0.250000   0.250000   0.250000         0.0093
       45           0.250000   0.250000   0.416667         0.0093
       46           0.250000   0.250000   0.583333         0.0093
       47           0.250000   0.250000   0.750000         0.0093
       48           0.250000   0.250000   0.916667         0.0093
       49           0.250000   0.416667   0.083333         0.0093
       50           0.250000   0.416667   0.250000         0.0093
       51           0.250000   0.416667   0.416667         0.0093
       52           0.250000   0.416667   0.583333         0.0093
       53           0.250000   0.416667   0.750000         0.0093
       54           0.250000   0.416667   0.916667         0.0093
       55           0.250000   0.583333   0.083333         0.0093
       56           0.250000   0.583333   0.250000         0.0093
       57           0.250000   0.583333   0.416667         0.0093
       58           0.250000   0.583333   0.583333         0.0093
       59           0.250000   0.583333   0.750000         0.0093
       60           0.250000   0.583333   0.916667         0.0093
       61           0.250000   0.750000   0.083333         0.0093
       62           0.250000   0.750000   0.250000         0.0093
       63           0.250000   0.750000   0.416667         0.0093
       64           0.250000   0.750000   0.583333         0.0093
       65           0.250000   0.750000   0.750000         0.0093
       66           0.250000   0.750000   0.916667         0.0093
       67           0.250000   0.916667   0.083333         0.0093
       68           0.250000   0.916667   0.250000         0.0093
       69           0.250000   0.916667   0.416667         0.0093
       70           0.250000   0.916667   0.583333         0.0093
       71           0.250000   0.916667   0.750000         0.0093
       72           0.250000   0.916667   0.916667         0.0093
       73           0.416667   0.083333   0.083333         0.0093
       74           0.416667   0.083333   0.250000         0.0093
       75           0.416667   0.083333   0.416667         0.0093
       76           0.416667   0.083333   0.583333         0.0093
       77           0.416667   0.083333   0.750000         0.0093
       78           0.416667   0.083333   0.916667         0.0093
       79           0.416667   0.250000   0.083333         0.0093
       80           0.416667   0.250000   0.250000         0.0093
       81           0.416667   0.250000   0.416667         0.0093
       82           0.416667   0.250000   0.583333         0.0093
       83           0.416667   0.250000   0.750000         0.0093
       84           0.416667   0.250000   0.916667         0.0093
       85           0.416667   0.416667   0.083333         0.0093
       86           0.416667   0.416667   0.250000         0.0093
       87           0.416667   0.416667   0.416667         0.0093
       88           0.416667   0.416667   0.583333         0.0093
       89           0.416667   0.416667   0.750000         0.0093
       90           0.416667   0.416667   0.916667         0.0093
       91           0.416667   0.583333   0.083333         0.0093
       92           0.416667   0.583333   0.250000         0.0093
       93           0.416667   0.583333   0.416667         0.0093
       94           0.416667   0.583333   0.583333         0.0093
       95           0.416667   0.583333   0.750000         0.0093
       96           0.416667   0.583333   0.916667         0.0093
       97           0.416667   0.750000   0.083333         0.0093
       98           0.416667   0.750000   0.250000         0.0093
       99           0.416667   0.750000   0.416667         0.0093
      100           0.416667   0.750000   0.583333         0.0093
      101           0.416667   0.750000   0.750000         0.0093
      102           0.416667   0.750000   0.916667         0.0093
      103           0.416667   0.916667   0.083333         0.0093
      104           0.416667   0.916667   0.250000         0.0093
      105           0.416667   0.916667   0.416667         0.0093
      106           0.416667   0.916667   0.583333         0.0093
      107           0.416667   0.916667   0.750000         0.0093
      108           0.416667   0.916667   0.916667         0.0093
--------------------------------------------------------------------------------


********************************************************************************
*  General input information                                                   *
********************************************************************************

  Species output for all configurations : 

--------------------------------------------------------------------------------
  Species    Type    Atomic    Atomic    Charge       Radii (Angs)     Library
                     Number     Mass       (e)     Cova   Ionic  VDW   Symbol
--------------------------------------------------------------------------------
    Mg       Core       12      24.31   2.000000   1.100  0.000  1.640          
    O        Core        8      16.00  -2.000000   0.730  0.000  1.360          
--------------------------------------------------------------------------------


  Lattice summation method               =    Ewald          (3-D)
                                         =    Parry          (2-D)
                                         =    Saunders et al (1-D)
  Accuracy factor for lattice sums       =   12.000


  Time limit = Infinity

  Maximum range for interatomic potentials =    100000.000000 Angstroms

  General interatomic potentials :

--------------------------------------------------------------------------------
Atom  Types   Potential         A         B         C         D     Cutoffs(Ang)
  1     2                                                            Min    Max 
--------------------------------------------------------------------------------
O    c Mg   c Buckingham    0.130E+04 0.300      0.00      0.00     0.000 12.000
O    c O    c Buckingham    0.228E+05 0.149      27.9      0.00     0.000 12.000
--------------------------------------------------------------------------------

********************************************************************************
*  Output for configuration   1                                                *
********************************************************************************


  Components of energy : 

--------------------------------------------------------------------------------
  Interatomic potentials     =           6.72051513 eV
  Monopole - monopole (real) =          -5.11585306 eV
  Monopole - monopole (recip)=         -42.67997969 eV
  Monopole - monopole (total)=         -47.79583275 eV
--------------------------------------------------------------------------------
  Total lattice energy       =         -41.07531762 eV
--------------------------------------------------------------------------------
  Total lattice energy       =           -3963.1403 kJ/(mole unit cells)
--------------------------------------------------------------------------------

  Born effective charge tensors : 

-------------------------------------------------------------------------------
  Atom             x           y             z
-------------------------------------------------------------------------------
   1 Mg    x       2.0000      0.0000      0.0000
           y       0.0000      2.0000      0.0000
           z       0.0000      0.0000      2.0000
-------------------------------------------------------------------------------
   2 O     x      -2.0000      0.0000      0.0000
           y       0.0000     -2.0000      0.0000
           z       0.0000      0.0000     -2.0000
-------------------------------------------------------------------------------




  Elastic Constant Matrix: (Units=GPa)

-------------------------------------------------------------------------------
  Indices      1         2         3         4         5         6    
-------------------------------------------------------------------------------
       1    430.3381  143.4444  124.0198   27.4705   -0.0000   -0.0000
       2    143.4444  430.3381  124.0198  -27.4705   -0.0000    0.0000
       3    124.0198  124.0198  449.7626    0.0000    0.0000    0.0000
       4     27.4705  -27.4705    0.0000  124.0223   -0.0000   -0.0000
       5     -0.0000   -0.0000    0.0000   -0.0000  124.0223   27.4705
       6     -0.0000    0.0000    0.0000   -0.0000   27.4705  143.4468
-------------------------------------------------------------------------------


  Elastic Compliance Matrix: (Units=1/GPa)

-------------------------------------------------------------------------------
  Indices      1         2         3         4         5         6    
-------------------------------------------------------------------------------
       1    0.002809 -0.000831 -0.000546 -0.000806  0.000000  0.000000
       2   -0.000831  0.002809 -0.000546  0.000806  0.000000 -0.000000
       3   -0.000546 -0.000546  0.002524 -0.000000 -0.000000 -0.000000
       4   -0.000806  0.000806 -0.000000  0.008420 -0.000000  0.000000
       5    0.000000  0.000000 -0.000000 -0.000000  0.008420 -0.001613
       6    0.000000 -0.000000 -0.000000  0.000000 -0.001613  0.007280
-------------------------------------------------------------------------------

  Mechanical properties :

-------------------------------------------------------------------------------
  Convention :                    Reuss         Voigt         Hill
-------------------------------------------------------------------------------
  Bulk  Modulus (GPa)     =     232.60075     232.60075     232.60075
  Shear Modulus (GPa)     =     133.19011     139.56191     136.37601
-------------------------------------------------------------------------------
  Velocity S-wave (km/s)  =       6.09683       6.24096       6.16932
  Velocity P-wave (km/s)  =      10.69940      10.80963      10.75466
-------------------------------------------------------------------------------
  Compressibility (1/GPa) =    0.00429921
-------------------------------------------------------------------------------
  Stress axis :                     x             y             z
-------------------------------------------------------------------------------
  Youngs Moduli (GPa)     =     355.95460     355.95460     396.15028
-------------------------------------------------------------------------------
  Poissons Ratio (x)      =                     0.29568       0.21614
  Poissons Ratio (y)      =       0.29568                     0.21614
  Poissons Ratio (z)      =       0.19421       0.19421
-------------------------------------------------------------------------------


  Piezoelectric Strain Matrix: (Units=C/m**2)

-------------------------------------------------------------------------------
  Indices      1         2         3         4         5         6    
-------------------------------------------------------------------------------
       x    -0.00000  -0.00000   0.00000  -0.00000  -0.00000  -0.00000
       y    -0.00000   0.00000   0.00000   0.00000  -0.00000  -0.00000
       z    -0.00000   0.00000  -0.00000   0.00000   0.00000  -0.00000
-------------------------------------------------------------------------------


  Piezoelectric Stress Matrix: (Units=10**-11 C/N)

-------------------------------------------------------------------------------
  Indices      1         2         3         4         5         6    
-------------------------------------------------------------------------------
       x    -0.00000  -0.00000   0.00000  -0.00000  -0.00000  -0.00000
       y    -0.00000   0.00000   0.00000   0.00000  -0.00000  -0.00000
       z    -0.00000   0.00000  -0.00000   0.00000   0.00000  -0.00000
-------------------------------------------------------------------------------


  Static dielectric constant tensor : 

-------------------------------------------------------------------------------
              x         y         z
-------------------------------------------------------------------------------
       x     7.83310   0.00000   0.00000
       y     0.00000   7.83310   0.00000
       z     0.00000   0.00000   7.83310
--------------------------------------------------------------------------------

  Static refractive indices : 

-------------------------------------------------------------------------------
    1 =    2.79877      2 =    2.79877      3 =    2.79877
-------------------------------------------------------------------------------


  Phonon Calculation : 

  Number of k points for this configuration =      108

--------------------------------------------------------------------------------
  K point      1 =   0.083333  0.083333  0.083333  Weight =    0.009
--------------------------------------------------------------------------------

  Frequencies (cm-1) [NB: Negative implies an imaginary mode]:

   66.69   66.69  128.00  398.17  398.17 1107.60


--------------------------------------------------------------------------------
  K point      2 =   0.083333  0.083333  0.250000  Weight =    0.009
--------------------------------------------------------------------------------

  Frequencies (cm-1) [NB: Negative implies an imaginary mode]:

  154.81  189.59  304.11  381.14  410.37 1045.68


--------------------------------------------------------------------------------
  K point      3 =   0.083333  0.083333  0.416667  Weight =    0.009
--------------------------------------------------------------------------------

  Frequencies (cm-1) [NB: Negative implies an imaginary mode]:

  255.06  277.19  360.48  396.29  534.68  911.54


--------------------------------------------------------------------------------
  K point      4 =   0.083333  0.083333  0.583333  Weight =    0.009
--------------------------------------------------------------------------------

  Frequencies (cm-1) [NB: Negative implies an imaginary mode]:

  289.57  306.11  361.90  371.67  658.00  813.27


--------------------------------------------------------------------------------
  K point      5 =   0.083333  0.083333  0.750000  Weight =    0.009
--------------------------------------------------------------------------------

  Frequencies (cm-1) [NB: Negative implies an imaginary mode]:

  233.71  241.15  381.27  392.77  459.13  962.58


--------------------------------------------------------------------------------
  K point      6 =   0.083333  0.083333  0.916667  Weight =    0.009
--------------------------------------------------------------------------------

  Frequencies (cm-1) [NB: Negative implies an imaginary mode]:

  134.31  138.05  228.03  399.89  404.67 1072.92


--------------------------------------------------------------------------------
  K point      7 =   0.083333  0.250000  0.083333  Weight =    0.009
--------------------------------------------------------------------------------

  Frequencies (cm-1) [NB: Negative implies an imaginary mode]:

  154.81  189.59  304.11  381.14  410.37 1045.68


--------------------------------------------------------------------------------
  K point      8 =   0.083333  0.250000  0.250000  Weight =    0.009
--------------------------------------------------------------------------------

  Frequencies (cm-1) [NB: Negative implies an imaginary mode]:

  211.62  216.79  327.01  413.45  416.15 1006.26


--------------------------------------------------------------------------------
  K point      9 =   0.083333  0.250000  0.416667  Weight =    0.009
--------------------------------------------------------------------------------

  Frequencies (cm-1) [NB: Negative implies an imaginary mode]:

  277.75  328.46  403.29  434.49  451.80  896.55


--------------------------------------------------------------------------------
  K point     10 =   0.083333  0.250000  0.583333  Weight =    0.009
--------------------------------------------------------------------------------

  Frequencies (cm-1) [NB: Negative implies an imaginary mode]:

  316.82  382.78  395.29  452.29  613.64  743.89


--------------------------------------------------------------------------------
  K point     11 =   0.083333  0.250000  0.750000  Weight =    0.009
--------------------------------------------------------------------------------

  Frequencies (cm-1) [NB: Negative implies an imaginary mode]:

  289.82  372.84  383.08  455.96  505.73  841.43


--------------------------------------------------------------------------------
  K point     12 =   0.083333  0.250000  0.916667  Weight =    0.009
--------------------------------------------------------------------------------

  Frequencies (cm-1) [NB: Negative implies an imaginary mode]:

  214.52  260.54  379.72  385.46  424.40  982.59


--------------------------------------------------------------------------------
  K point     13 =   0.083333  0.416667  0.083333  Weight =    0.009
--------------------------------------------------------------------------------

  Frequencies (cm-1) [NB: Negative implies an imaginary mode]:

  255.06  277.19  360.48  396.29  534.68  911.54


--------------------------------------------------------------------------------
  K point     14 =   0.083333  0.416667  0.250000  Weight =    0.009
--------------------------------------------------------------------------------

  Frequencies (cm-1) [NB: Negative implies an imaginary mode]:

  277.75  328.46  403.29  434.49  451.80  896.55


--------------------------------------------------------------------------------
  K point     15 =   0.083333  0.416667  0.416667  Weight =    0.009
--------------------------------------------------------------------------------

  Frequencies (cm-1) [NB: Negative implies an imaginary mode]:

  317.67  338.29  443.20  452.16  460.13  843.04


--------------------------------------------------------------------------------
  K point     16 =   0.083333  0.416667  0.583333  Weight =    0.009
--------------------------------------------------------------------------------

  Frequencies (cm-1) [NB: Negative implies an imaginary mode]:

  351.23  412.89  449.26  478.55  501.86  746.87


--------------------------------------------------------------------------------
  K point     17 =   0.083333  0.416667  0.750000  Weight =    0.009
--------------------------------------------------------------------------------

  Frequencies (cm-1) [NB: Negative implies an imaginary mode]:

  331.15  405.53  440.68  482.45  614.97  675.56


--------------------------------------------------------------------------------
  K point     18 =   0.083333  0.416667  0.916667  Weight =    0.009
--------------------------------------------------------------------------------

  Frequencies (cm-1) [NB: Negative implies an imaginary mode]:

  289.43  329.38  370.07  413.67  589.32  832.83


--------------------------------------------------------------------------------
  K point     19 =   0.083333  0.583333  0.083333  Weight =    0.009
--------------------------------------------------------------------------------

  Frequencies (cm-1) [NB: Negative implies an imaginary mode]:

  289.57  306.11  361.90  371.67  658.00  813.27


--------------------------------------------------------------------------------
  K point     20 =   0.083333  0.583333  0.250000  Weight =    0.009
--------------------------------------------------------------------------------

  Frequencies (cm-1) [NB: Negative implies an imaginary mode]:

  316.82  382.78  395.29  452.29  613.64  743.89


--------------------------------------------------------------------------------
  K point     21 =   0.083333  0.583333  0.416667  Weight =    0.009
--------------------------------------------------------------------------------

  Frequencies (cm-1) [NB: Negative implies an imaginary mode]:

  351.23  412.89  449.26  478.55  501.86  746.87


--------------------------------------------------------------------------------
  K point     22 =   0.083333  0.583333  0.583333  Weight =    0.009
--------------------------------------------------------------------------------

  Frequencies (cm-1) [NB: Negative implies an imaginary mode]:

  340.04  364.47  451.50  467.07  485.01  792.95


--------------------------------------------------------------------------------
  K point     23 =   0.083333  0.583333  0.750000  Weight =    0.009
--------------------------------------------------------------------------------

  Frequencies (cm-1) [NB: Negative implies an imaginary mode]:

  325.88  381.35  431.36  461.03  484.02  808.34


--------------------------------------------------------------------------------
  K point     24 =   0.083333  0.583333  0.916667  Weight =    0.009
--------------------------------------------------------------------------------

  Frequencies (cm-1) [NB: Negative implies an imaginary mode]:

  289.43  329.38  370.07  413.67  589.32  832.83


--------------------------------------------------------------------------------
  K point     25 =   0.083333  0.750000  0.083333  Weight =    0.009
--------------------------------------------------------------------------------

  Frequencies (cm-1) [NB: Negative implies an imaginary mode]:

  233.71  241.15  381.27  392.77  459.13  962.58


--------------------------------------------------------------------------------
  K point     26 =   0.083333  0.750000  0.250000  Weight =    0.009
--------------------------------------------------------------------------------

  Frequencies (cm-1) [NB: Negative implies an imaginary mode]:

  289.82  372.84  383.08  455.96  505.73  841.43


--------------------------------------------------------------------------------
  K point     27 =   0.083333  0.750000  0.416667  Weight =    0.009
--------------------------------------------------------------------------------

  Frequencies (cm-1) [NB: Negative implies an imaginary mode]:

  331.15  405.53  440.68  482.45  614.97  675.56


--------------------------------------------------------------------------------
  K point     28 =   0.083333  0.750000  0.583333  Weight =    0.009
--------------------------------------------------------------------------------

  Frequencies (cm-1) [NB: Negative implies an imaginary mode]:

  325.88  381.35  431.36  461.03  484.02  808.34


--------------------------------------------------------------------------------
  K point     29 =   0.083333  0.750000  0.750000  Weight =    0.009
--------------------------------------------------------------------------------

  Frequencies (cm-1) [NB: Negative implies an imaginary mode]:

  273.69  287.57  406.38  430.08  432.63  922.66


--------------------------------------------------------------------------------
  K point     30 =   0.083333  0.750000  0.916667  Weight =    0.009
--------------------------------------------------------------------------------

  Frequencies (cm-1) [NB: Negative implies an imaginary mode]:

  214.52  260.54  379.72  385.46  424.40  982.59


--------------------------------------------------------------------------------
  K point     31 =   0.083333  0.916667  0.083333  Weight =    0.009
--------------------------------------------------------------------------------

  Frequencies (cm-1) [NB: Negative implies an imaginary mode]:

  134.31  138.05  228.03  399.89  404.67 1072.92


--------------------------------------------------------------------------------
  K point     32 =   0.083333  0.916667  0.250000  Weight =    0.009
--------------------------------------------------------------------------------

  Frequencies (cm-1) [NB: Negative implies an imaginary mode]:

  214.52  260.54  379.72  385.46  424.40  982.59


--------------------------------------------------------------------------------
  K point     33 =   0.083333  0.916667  0.416667  Weight =    0.009
--------------------------------------------------------------------------------

  Frequencies (cm-1) [NB: Negative implies an imaginary mode]:

  289.43  329.38  370.07  413.67  589.32  832.83


--------------------------------------------------------------------------------
  K point     34 =   0.083333  0.916667  0.583333  Weight =    0.009
--------------------------------------------------------------------------------

  Frequencies (cm-1) [NB: Negative implies an imaginary mode]:

  289.43  329.38  370.07  413.67  589.32  832.83


--------------------------------------------------------------------------------
  K point     35 =   0.083333  0.916667  0.750000  Weight =    0.009
--------------------------------------------------------------------------------

  Frequencies (cm-1) [NB: Negative implies an imaginary mode]:

  214.52  260.54  379.72  385.46  424.40  982.59


--------------------------------------------------------------------------------
  K point     36 =   0.083333  0.916667  0.916667  Weight =    0.009
--------------------------------------------------------------------------------

  Frequencies (cm-1) [NB: Negative implies an imaginary mode]:

  134.31  138.05  228.03  399.89  404.67 1072.92


--------------------------------------------------------------------------------
  K point     37 =   0.250000  0.083333  0.083333  Weight =    0.009
--------------------------------------------------------------------------------

  Frequencies (cm-1) [NB: Negative implies an imaginary mode]:

  154.81  189.59  304.11  381.14  410.37 1045.68


--------------------------------------------------------------------------------
  K point     38 =   0.250000  0.083333  0.250000  Weight =    0.009
--------------------------------------------------------------------------------

  Frequencies (cm-1) [NB: Negative implies an imaginary mode]:

  211.62  216.79  327.01  413.45  416.15 1006.26


--------------------------------------------------------------------------------
  K point     39 =   0.250000  0.083333  0.416667  Weight =    0.009
--------------------------------------------------------------------------------

  Frequencies (cm-1) [NB: Negative implies an imaginary mode]:

  277.75  328.46  403.29  434.49  451.80  896.55


--------------------------------------------------------------------------------
  K point     40 =   0.250000  0.083333  0.583333  Weight =    0.009
--------------------------------------------------------------------------------

  Frequencies (cm-1) [NB: Negative implies an imaginary mode]:

  316.82  382.78  395.29  452.29  613.64  743.89


--------------------------------------------------------------------------------
  K point     41 =   0.250000  0.083333  0.750000  Weight =    0.009
--------------------------------------------------------------------------------

  Frequencies (cm-1) [NB: Negative implies an imaginary mode]:

  289.82  372.84  383.08  455.96  505.73  841.43


--------------------------------------------------------------------------------
  K point     42 =   0.250000  0.083333  0.916667  Weight =    0.009
--------------------------------------------------------------------------------

  Frequencies (cm-1) [NB: Negative implies an imaginary mode]:

  214.52  260.54  379.72  385.46  424.40  982.59


--------------------------------------------------------------------------------
  K point     43 =   0.250000  0.250000  0.083333  Weight =    0.009
--------------------------------------------------------------------------------

  Frequencies (cm-1) [NB: Negative implies an imaginary mode]:

  211.62  216.79  327.01  413.45  416.15 1006.26


--------------------------------------------------------------------------------
  K point     44 =   0.250000  0.250000  0.250000  Weight =    0.009
--------------------------------------------------------------------------------

  Frequencies (cm-1) [NB: Negative implies an imaginary mode]:

  187.35  187.35  381.13  385.23  385.23 1021.55


--------------------------------------------------------------------------------
  K point     45 =   0.250000  0.250000  0.416667  Weight =    0.009
--------------------------------------------------------------------------------

  Frequencies (cm-1) [NB: Negative implies an imaginary mode]:

  244.09  325.32  361.46  431.60  455.62  925.81


--------------------------------------------------------------------------------
  K point     46 =   0.250000  0.250000  0.583333  Weight =    0.009
--------------------------------------------------------------------------------

  Frequencies (cm-1) [NB: Negative implies an imaginary mode]:

  305.51  371.57  421.03  477.69  567.18  761.37


--------------------------------------------------------------------------------
  K point     47 =   0.250000  0.250000  0.750000  Weight =    0.009
--------------------------------------------------------------------------------

  Frequencies (cm-1) [NB: Negative implies an imaginary mode]:

  310.60  387.19  412.44  457.33  546.78  783.06


--------------------------------------------------------------------------------
  K point     48 =   0.250000  0.250000  0.916667  Weight =    0.009
--------------------------------------------------------------------------------

  Frequencies (cm-1) [NB: Negative implies an imaginary mode]:

  273.69  287.57  406.38  430.08  432.63  922.66


--------------------------------------------------------------------------------
  K point     49 =   0.250000  0.416667  0.083333  Weight =    0.009
--------------------------------------------------------------------------------

  Frequencies (cm-1) [NB: Negative implies an imaginary mode]:

  277.75  328.46  403.29  434.49  451.80  896.55


--------------------------------------------------------------------------------
  K point     50 =   0.250000  0.416667  0.250000  Weight =    0.009
--------------------------------------------------------------------------------

  Frequencies (cm-1) [NB: Negative implies an imaginary mode]:

  244.09  325.32  361.46  431.60  455.62  925.81


--------------------------------------------------------------------------------
  K point     51 =   0.250000  0.416667  0.416667  Weight =    0.009
--------------------------------------------------------------------------------

  Frequencies (cm-1) [NB: Negative implies an imaginary mode]:

  277.95  317.17  402.53  409.43  516.21  877.04


--------------------------------------------------------------------------------
  K point     52 =   0.250000  0.416667  0.583333  Weight =    0.009
--------------------------------------------------------------------------------

  Frequencies (cm-1) [NB: Negative implies an imaginary mode]:

  336.25  413.00  419.28  473.57  544.20  746.29


--------------------------------------------------------------------------------
  K point     53 =   0.250000  0.416667  0.750000  Weight =    0.009
--------------------------------------------------------------------------------

  Frequencies (cm-1) [NB: Negative implies an imaginary mode]:

  371.03  442.32  454.56  469.90  572.21  667.89


--------------------------------------------------------------------------------
  K point     54 =   0.250000  0.416667  0.916667  Weight =    0.009
--------------------------------------------------------------------------------

  Frequencies (cm-1) [NB: Negative implies an imaginary mode]:

  325.88  381.35  431.36  461.03  484.02  808.34


--------------------------------------------------------------------------------
  K point     55 =   0.250000  0.583333  0.083333  Weight =    0.009
--------------------------------------------------------------------------------

  Frequencies (cm-1) [NB: Negative implies an imaginary mode]:

  316.82  382.78  395.29  452.29  613.64  743.89


--------------------------------------------------------------------------------
  K point     56 =   0.250000  0.583333  0.250000  Weight =    0.009
--------------------------------------------------------------------------------

  Frequencies (cm-1) [NB: Negative implies an imaginary mode]:

  305.51  371.57  421.03  477.69  567.18  761.37


--------------------------------------------------------------------------------
  K point     57 =   0.250000  0.583333  0.416667  Weight =    0.009
--------------------------------------------------------------------------------

  Frequencies (cm-1) [NB: Negative implies an imaginary mode]:

  336.25  413.00  419.28  473.57  544.20  746.29


--------------------------------------------------------------------------------
  K point     58 =   0.250000  0.583333  0.583333  Weight =    0.009
--------------------------------------------------------------------------------

  Frequencies (cm-1) [NB: Negative implies an imaginary mode]:

  327.29  419.08  444.77  479.54  569.62  706.97


--------------------------------------------------------------------------------
  K point     59 =   0.250000  0.583333  0.750000  Weight =    0.009
--------------------------------------------------------------------------------

  Frequencies (cm-1) [NB: Negative implies an imaginary mode]:

  371.03  442.32  454.56  469.90  572.21  667.89


--------------------------------------------------------------------------------
  K point     60 =   0.250000  0.583333  0.916667  Weight =    0.009
--------------------------------------------------------------------------------

  Frequencies (cm-1) [NB: Negative implies an imaginary mode]:

  331.15  405.53  440.68  482.45  614.97  675.56


--------------------------------------------------------------------------------
  K point     61 =   0.250000  0.750000  0.083333  Weight =    0.009
--------------------------------------------------------------------------------

  Frequencies (cm-1) [NB: Negative implies an imaginary mode]:

  289.82  372.84  383.08  455.96  505.73  841.43


--------------------------------------------------------------------------------
  K point     62 =   0.250000  0.750000  0.250000  Weight =    0.009
--------------------------------------------------------------------------------

  Frequencies (cm-1) [NB: Negative implies an imaginary mode]:

  310.60  387.19  412.44  457.33  546.78  783.06


--------------------------------------------------------------------------------
  K point     63 =   0.250000  0.750000  0.416667  Weight =    0.009
--------------------------------------------------------------------------------

  Frequencies (cm-1) [NB: Negative implies an imaginary mode]:

  371.03  442.32  454.56  469.90  572.21  667.89


--------------------------------------------------------------------------------
  K point     64 =   0.250000  0.750000  0.583333  Weight =    0.009
--------------------------------------------------------------------------------

  Frequencies (cm-1) [NB: Negative implies an imaginary mode]:

  371.03  442.32  454.56  469.90  572.21  667.89


--------------------------------------------------------------------------------
  K point     65 =   0.250000  0.750000  0.750000  Weight =    0.009
--------------------------------------------------------------------------------

  Frequencies (cm-1) [NB: Negative implies an imaginary mode]:

  310.60  387.19  412.44  457.33  546.78  783.06


--------------------------------------------------------------------------------
  K point     66 =   0.250000  0.750000  0.916667  Weight =    0.009
--------------------------------------------------------------------------------

  Frequencies (cm-1) [NB: Negative implies an imaginary mode]:

  289.82  372.84  383.08  455.96  505.73  841.43


--------------------------------------------------------------------------------
  K point     67 =   0.250000  0.916667  0.083333  Weight =    0.009
--------------------------------------------------------------------------------

  Frequencies (cm-1) [NB: Negative implies an imaginary mode]:

  214.52  260.54  379.72  385.46  424.40  982.59


--------------------------------------------------------------------------------
  K point     68 =   0.250000  0.916667  0.250000  Weight =    0.009
--------------------------------------------------------------------------------

  Frequencies (cm-1) [NB: Negative implies an imaginary mode]:

  273.69  287.57  406.38  430.08  432.63  922.66


--------------------------------------------------------------------------------
  K point     69 =   0.250000  0.916667  0.416667  Weight =    0.009
--------------------------------------------------------------------------------

  Frequencies (cm-1) [NB: Negative implies an imaginary mode]:

  325.88  381.35  431.36  461.03  484.02  808.34


--------------------------------------------------------------------------------
  K point     70 =   0.250000  0.916667  0.583333  Weight =    0.009
--------------------------------------------------------------------------------

  Frequencies (cm-1) [NB: Negative implies an imaginary mode]:

  331.15  405.53  440.68  482.45  614.97  675.56


--------------------------------------------------------------------------------
  K point     71 =   0.250000  0.916667  0.750000  Weight =    0.009
--------------------------------------------------------------------------------

  Frequencies (cm-1) [NB: Negative implies an imaginary mode]:

  289.82  372.84  383.08  455.96  505.73  841.43


--------------------------------------------------------------------------------
  K point     72 =   0.250000  0.916667  0.916667  Weight =    0.009
--------------------------------------------------------------------------------

  Frequencies (cm-1) [NB: Negative implies an imaginary mode]:

  233.71  241.15  381.27  392.77  459.13  962.58


--------------------------------------------------------------------------------
  K point     73 =   0.416667  0.083333  0.083333  Weight =    0.009
--------------------------------------------------------------------------------

  Frequencies (cm-1) [NB: Negative implies an imaginary mode]:

  255.06  277.19  360.48  396.29  534.68  911.54


--------------------------------------------------------------------------------
  K point     74 =   0.416667  0.083333  0.250000  Weight =    0.009
--------------------------------------------------------------------------------

  Frequencies (cm-1) [NB: Negative implies an imaginary mode]:

  277.75  328.46  403.29  434.49  451.80  896.55


--------------------------------------------------------------------------------
  K point     75 =   0.416667  0.083333  0.416667  Weight =    0.009
--------------------------------------------------------------------------------

  Frequencies (cm-1) [NB: Negative implies an imaginary mode]:

  317.67  338.29  443.20  452.16  460.13  843.04


--------------------------------------------------------------------------------
  K point     76 =   0.416667  0.083333  0.583333  Weight =    0.009
--------------------------------------------------------------------------------

  Frequencies (cm-1) [NB: Negative implies an imaginary mode]:

  351.23  412.89  449.26  478.55  501.86  746.87


--------------------------------------------------------------------------------
  K point     77 =   0.416667  0.083333  0.750000  Weight =    0.009
--------------------------------------------------------------------------------

  Frequencies (cm-1) [NB: Negative implies an imaginary mode]:

  331.15  405.53  440.68  482.45  614.97  675.56


--------------------------------------------------------------------------------
  K point     78 =   0.416667  0.083333  0.916667  Weight =    0.009
--------------------------------------------------------------------------------

  Frequencies (cm-1) [NB: Negative implies an imaginary mode]:

  289.43  329.38  370.07  413.67  589.32  832.83


--------------------------------------------------------------------------------
  K point     79 =   0.416667  0.250000  0.083333  Weight =    0.009
--------------------------------------------------------------------------------

  Frequencies (cm-1) [NB: Negative implies an imaginary mode]:

  277.75  328.46  403.29  434.49  451.80  896.55


--------------------------------------------------------------------------------
  K point     80 =   0.416667  0.250000  0.250000  Weight =    0.009
--------------------------------------------------------------------------------

  Frequencies (cm-1) [NB: Negative implies an imaginary mode]:

  244.09  325.32  361.46  431.60  455.62  925.81


--------------------------------------------------------------------------------
  K point     81 =   0.416667  0.250000  0.416667  Weight =    0.009
--------------------------------------------------------------------------------

  Frequencies (cm-1) [NB: Negative implies an imaginary mode]:

  277.95  317.17  402.53  409.43  516.21  877.04


--------------------------------------------------------------------------------
  K point     82 =   0.416667  0.250000  0.583333  Weight =    0.009
--------------------------------------------------------------------------------

  Frequencies (cm-1) [NB: Negative implies an imaginary mode]:

  336.25  413.00  419.28  473.57  544.20  746.29


--------------------------------------------------------------------------------
  K point     83 =   0.416667  0.250000  0.750000  Weight =    0.009
--------------------------------------------------------------------------------

  Frequencies (cm-1) [NB: Negative implies an imaginary mode]:

  371.03  442.32  454.56  469.90  572.21  667.89


--------------------------------------------------------------------------------
  K point     84 =   0.416667  0.250000  0.916667  Weight =    0.009
--------------------------------------------------------------------------------

  Frequencies (cm-1) [NB: Negative implies an imaginary mode]:

  325.88  381.35  431.36  461.03  484.02  808.34


--------------------------------------------------------------------------------
  K point     85 =   0.416667  0.416667  0.083333  Weight =    0.009
--------------------------------------------------------------------------------

  Frequencies (cm-1) [NB: Negative implies an imaginary mode]:

  317.67  338.29  443.20  452.16  460.13  843.04


--------------------------------------------------------------------------------
  K point     86 =   0.416667  0.416667  0.250000  Weight =    0.009
--------------------------------------------------------------------------------

  Frequencies (cm-1) [NB: Negative implies an imaginary mode]:

  277.95  317.17  402.53  409.43  516.21  877.04


--------------------------------------------------------------------------------
  K point     87 =   0.416667  0.416667  0.416667  Weight =    0.009
--------------------------------------------------------------------------------

  Frequencies (cm-1) [NB: Negative implies an imaginary mode]:

  272.51  272.51  359.91  359.91  613.04  871.77


--------------------------------------------------------------------------------
  K point     88 =   0.416667  0.416667  0.583333  Weight =    0.009
--------------------------------------------------------------------------------

  Frequencies (cm-1) [NB: Negative implies an imaginary mode]:

  300.78  357.41  366.96  428.69  636.10  773.26


--------------------------------------------------------------------------------
  K point     89 =   0.416667  0.416667  0.750000  Weight =    0.009
--------------------------------------------------------------------------------

  Frequencies (cm-1) [NB: Negative implies an imaginary mode]:

  327.29  419.08  444.77  479.54  569.62  706.97


--------------------------------------------------------------------------------
  K point     90 =   0.416667  0.416667  0.916667  Weight =    0.009
--------------------------------------------------------------------------------

  Frequencies (cm-1) [NB: Negative implies an imaginary mode]:

  340.04  364.47  451.50  467.07  485.01  792.95


--------------------------------------------------------------------------------
  K point     91 =   0.416667  0.583333  0.083333  Weight =    0.009
--------------------------------------------------------------------------------

  Frequencies (cm-1) [NB: Negative implies an imaginary mode]:

  351.23  412.89  449.26  478.55  501.86  746.87


--------------------------------------------------------------------------------
  K point     92 =   0.416667  0.583333  0.250000  Weight =    0.009
--------------------------------------------------------------------------------

  Frequencies (cm-1) [NB: Negative implies an imaginary mode]:

  336.25  413.00  419.28  473.57  544.20  746.29


--------------------------------------------------------------------------------
  K point     93 =   0.416667  0.583333  0.416667  Weight =    0.009
--------------------------------------------------------------------------------

  Frequencies (cm-1) [NB: Negative implies an imaginary mode]:

  300.78  357.41  366.96  428.69  636.10  773.26


--------------------------------------------------------------------------------
  K point     94 =   0.416667  0.583333  0.583333  Weight =    0.009
--------------------------------------------------------------------------------

  Frequencies (cm-1) [NB: Negative implies an imaginary mode]:

  300.78  357.41  366.96  428.69  636.10  773.26


--------------------------------------------------------------------------------
  K point     95 =   0.416667  0.583333  0.750000  Weight =    0.009
--------------------------------------------------------------------------------

  Frequencies (cm-1) [NB: Negative implies an imaginary mode]:

  336.25  413.00  419.28  473.57  544.20  746.29


--------------------------------------------------------------------------------
  K point     96 =   0.416667  0.583333  0.916667  Weight =    0.009
--------------------------------------------------------------------------------

  Frequencies (cm-1) [NB: Negative implies an imaginary mode]:

  351.23  412.89  449.26  478.55  501.86  746.87


--------------------------------------------------------------------------------
  K point     97 =   0.416667  0.750000  0.083333  Weight =    0.009
--------------------------------------------------------------------------------

  Frequencies (cm-1) [NB: Negative implies an imaginary mode]:

  331.15  405.53  440.68  482.45  614.97  675.56


--------------------------------------------------------------------------------
  K point     98 =   0.416667  0.750000  0.250000  Weight =    0.009
--------------------------------------------------------------------------------

  Frequencies (cm-1) [NB: Negative implies an imaginary mode]:

  371.03  442.32  454.56  469.90  572.21  667.89


--------------------------------------------------------------------------------
  K point     99 =   0.416667  0.750000  0.416667  Weight =    0.009
--------------------------------------------------------------------------------

  Frequencies (cm-1) [NB: Negative implies an imaginary mode]:

  327.29  419.08  444.77  479.54  569.62  706.97


--------------------------------------------------------------------------------
  K point    100 =   0.416667  0.750000  0.583333  Weight =    0.009
--------------------------------------------------------------------------------

  Frequencies (cm-1) [NB: Negative implies an imaginary mode]:

  336.25  413.00  419.28  473.57  544.20  746.29


--------------------------------------------------------------------------------
  K point    101 =   0.416667  0.750000  0.750000  Weight =    0.009
--------------------------------------------------------------------------------

  Frequencies (cm-1) [NB: Negative implies an imaginary mode]:

  305.51  371.57  421.03  477.69  567.18  761.37


--------------------------------------------------------------------------------
  K point    102 =   0.416667  0.750000  0.916667  Weight =    0.009
--------------------------------------------------------------------------------

  Frequencies (cm-1) [NB: Negative implies an imaginary mode]:

  316.82  382.78  395.29  452.29  613.64  743.89


--------------------------------------------------------------------------------
  K point    103 =   0.416667  0.916667  0.083333  Weight =    0.009
--------------------------------------------------------------------------------

  Frequencies (cm-1) [NB: Negative implies an imaginary mode]:

  289.43  329.38  370.07  413.67  589.32  832.83


--------------------------------------------------------------------------------
  K point    104 =   0.416667  0.916667  0.250000  Weight =    0.009
--------------------------------------------------------------------------------

  Frequencies (cm-1) [NB: Negative implies an imaginary mode]:

  325.88  381.35  431.36  461.03  484.02  808.34


--------------------------------------------------------------------------------
  K point    105 =   0.416667  0.916667  0.416667  Weight =    0.009
--------------------------------------------------------------------------------

  Frequencies (cm-1) [NB: Negative implies an imaginary mode]:

  340.04  364.47  451.50  467.07  485.01  792.95


--------------------------------------------------------------------------------
  K point    106 =   0.416667  0.916667  0.583333  Weight =    0.009
--------------------------------------------------------------------------------

  Frequencies (cm-1) [NB: Negative implies an imaginary mode]:

  351.23  412.89  449.26  478.55  501.86  746.87


--------------------------------------------------------------------------------
  K point    107 =   0.416667  0.916667  0.750000  Weight =    0.009
--------------------------------------------------------------------------------

  Frequencies (cm-1) [NB: Negative implies an imaginary mode]:

  316.82  382.78  395.29  452.29  613.64  743.89


--------------------------------------------------------------------------------
  K point    108 =   0.416667  0.916667  0.916667  Weight =    0.009
--------------------------------------------------------------------------------

  Frequencies (cm-1) [NB: Negative implies an imaginary mode]:

  289.57  306.11  361.90  371.67  658.00  813.27


--------------------------------------------------------------------------------
  Phonon properties (per mole of unit cells): Temperature =      0.000 K
--------------------------------------------------------------------------------
  Zero point energy            =        0.174331 eV
--------------------------------------------------------------------------------

  Phonon density of states : 

--------------------------------------------------------------------------------
 Frequency (cm-1) Density of States                                             
--------------------------------------------------------------------------------
    0.00000 |                                                              0.000
   17.30619 |                                                              0.000
   34.61239 |                                                              0.000
   51.91858 |**                                                            0.003
   69.22477 |                                                              0.000
   86.53097 |                                                              0.000
  103.83716 |                                                              0.000
  121.14335 |*******                                                       0.011
  138.44955 |***                                                           0.005
  155.75574 |                                                              0.000
  173.06193 |*****                                                         0.008
  190.36813 |                                                              0.000
  207.67432 |************                                                  0.019
  224.98051 |*********                                                     0.014
  242.28670 |******                                                        0.009
  259.59290 |***********                                                   0.017
  276.89909 |********************************                              0.046
  294.20528 |****************                                              0.023
  311.51148 |***********************************                           0.051
  328.81767 |*************************                                     0.037
  346.12386 |*********************                                         0.031
  363.43006 |**************************************                        0.056
  380.73625 |***************************************************           0.074
  398.04244 |************************************************************  0.086
  415.34864 |*****************************************                     0.060
  432.65483 |********************************                              0.046
  449.96102 |******************************************************        0.079
  467.26722 |**************************************                        0.056
  484.57341 |*********                                                     0.014
  501.87960 |*********                                                     0.014
  519.18580 |***                                                           0.005
  536.49199 |*********                                                     0.014
  553.79818 |******                                                        0.009
  571.10438 |******                                                        0.009
  588.41057 |******                                                        0.009
  605.71676 |*************                                                 0.020
  623.02296 |***                                                           0.005
  640.32915 |                                                              0.000
  657.63534 |*********                                                     0.014
  674.94153 |******                                                        0.009
  692.24773 |***                                                           0.005
  709.55392 |                                                              0.000
  726.86011 |******                                                        0.009
  744.16631 |****************                                              0.023
  761.47250 |***                                                           0.005
  778.77869 |******                                                        0.009
  796.08489 |*********                                                     0.014
  813.39108 |                                                              0.000
  830.69727 |****************                                              0.023
  848.00347 |                                                              0.000
  865.30966 |****                                                          0.006
  882.61585 |******                                                        0.009
  899.92205 |***                                                           0.005
  917.22824 |******                                                        0.009
  934.53443 |                                                              0.000
  951.84063 |***                                                           0.005
  969.14682 |******                                                        0.009
  986.45301 |                                                              0.000
 1003.75921 |***                                                           0.005
 1021.06540 |*                                                             0.002
 1038.37159 |***                                                           0.005
 1055.67779 |***                                                           0.005
 1072.98398 |                                                              0.000
 1090.29017 |*                                                             0.002
--------------------------------------------------------------------------------




  Phonon density of states written as mgo_ph_dos_6.dens             



  Time to end of properties =       0.0781 seconds


  Peak dynamic memory used =       0.48 MB 


  Timing analysis for GULP :

--------------------------------------------------------------------------------
  Task / Subroutine                                          Time (Seconds)
--------------------------------------------------------------------------------
  Calculation of reciprocal space energy and derivatives          0.0313
  Calculation of real space energy and derivatives                0.0313
  Calculation of phonons                                          0.0781
  Calculation of scattering                                       0.0000
--------------------------------------------------------------------------------
  Total CPU time                                                  0.0781
--------------------------------------------------------------------------------


  Job Finished at 14:03.19 21st November   2022                               

