********************************************************************************
*                       GENERAL UTILITY LATTICE PROGRAM                        *
*                                 Julian Gale                                  *
*                      Nanochemistry Research Institute                        *
*                           Department of Chemistry                            *
*                    Curtin University, Western Australia                      *
********************************************************************************
* Version = 4.3.5 * Last modified = 16th December 2015                         *
********************************************************************************
*  single       - perform a single point run                                   *
*  conp         - constant pressure calculation                                *
*  phonon       - calculate phonons for final geometry                         *
********************************************************************************
* ASE calculation                                                              *
********************************************************************************


  Job Started  at 14:03.18 21st November   2022                               

  Number of CPUs =     1


  Total number of configurations input =   1

********************************************************************************
*  Input for Configuration =   1                                               *
********************************************************************************

  Formula = MgO                                                         

  Number of irreducible atoms/shells =       2


  Total number atoms/shells =       2

  Dimensionality = 3               :  Bulk   



  Cartesian lattice vectors (Angstroms) :

        2.978334    0.000000    0.000000
        1.489167    2.579313    0.000000
        1.489167    0.859771    2.431800

  Cell parameters (Angstroms/Degrees):

  a =       2.9783    alpha =  60.0000
  b =       2.9783    beta  =  60.0000
  c =       2.9783    gamma =  60.0000

  Initial cell volume =          18.681219 Angs**3

  Shrinking factors =      2     2     2

  Temperature of configuration =  0.000     K 

  Pressure of configuration =         0.000 GPa 

  Fractional coordinates of asymmetric unit :

--------------------------------------------------------------------------------
   No.  Atomic       x           y          z         Charge      Occupancy
        Label      (Frac)      (Frac)     (Frac)        (e)         (Frac)  
--------------------------------------------------------------------------------
      1 Mg    c    0.000000    0.000000    0.000000     2.00000    1.000000    
      2 O     c    0.500000    0.500000    0.500000    -2.00000    1.000000    
--------------------------------------------------------------------------------


  Brillouin zone sampling points :

--------------------------------------------------------------------------------
  Point number          x          y          z            Weight
--------------------------------------------------------------------------------
        1           0.250000   0.250000   0.250000         0.2500
        2           0.250000   0.250000   0.750000         0.2500
        3           0.250000   0.750000   0.250000         0.2500
        4           0.250000   0.750000   0.750000         0.2500
--------------------------------------------------------------------------------


********************************************************************************
*  General input information                                                   *
********************************************************************************

  Species output for all configurations : 

--------------------------------------------------------------------------------
  Species    Type    Atomic    Atomic    Charge       Radii (Angs)     Library
                     Number     Mass       (e)     Cova   Ionic  VDW   Symbol
--------------------------------------------------------------------------------
    Mg       Core       12      24.31   2.000000   1.100  0.000  1.640          
    O        Core        8      16.00  -2.000000   0.730  0.000  1.360          
--------------------------------------------------------------------------------


  Lattice summation method               =    Ewald          (3-D)
                                         =    Parry          (2-D)
                                         =    Saunders et al (1-D)
  Accuracy factor for lattice sums       =   12.000


  Time limit = Infinity

  Maximum range for interatomic potentials =    100000.000000 Angstroms

  General interatomic potentials :

--------------------------------------------------------------------------------
Atom  Types   Potential         A         B         C         D     Cutoffs(Ang)
  1     2                                                            Min    Max 
--------------------------------------------------------------------------------
O    c Mg   c Buckingham    0.130E+04 0.300      0.00      0.00     0.000 12.000
O    c O    c Buckingham    0.228E+05 0.149      27.9      0.00     0.000 12.000
--------------------------------------------------------------------------------

********************************************************************************
*  Output for configuration   1                                                *
********************************************************************************


  Components of energy : 

--------------------------------------------------------------------------------
  Interatomic potentials     =           6.72051513 eV
  Monopole - monopole (real) =          -5.11585306 eV
  Monopole - monopole (recip)=         -42.67997969 eV
  Monopole - monopole (total)=         -47.79583275 eV
--------------------------------------------------------------------------------
  Total lattice energy       =         -41.07531762 eV
--------------------------------------------------------------------------------
  Total lattice energy       =           -3963.1403 kJ/(mole unit cells)
--------------------------------------------------------------------------------

  Born effective charge tensors : 

-------------------------------------------------------------------------------
  Atom             x           y             z
-------------------------------------------------------------------------------
   1 Mg    x       2.0000      0.0000      0.0000
           y       0.0000      2.0000      0.0000
           z       0.0000      0.0000      2.0000
-------------------------------------------------------------------------------
   2 O     x      -2.0000      0.0000      0.0000
           y       0.0000     -2.0000      0.0000
           z       0.0000      0.0000     -2.0000
-------------------------------------------------------------------------------




  Elastic Constant Matrix: (Units=GPa)

-------------------------------------------------------------------------------
  Indices      1         2         3         4         5         6    
-------------------------------------------------------------------------------
       1    430.3381  143.4444  124.0198   27.4705   -0.0000   -0.0000
       2    143.4444  430.3381  124.0198  -27.4705   -0.0000    0.0000
       3    124.0198  124.0198  449.7626    0.0000    0.0000    0.0000
       4     27.4705  -27.4705    0.0000  124.0223   -0.0000   -0.0000
       5     -0.0000   -0.0000    0.0000   -0.0000  124.0223   27.4705
       6     -0.0000    0.0000    0.0000   -0.0000   27.4705  143.4468
-------------------------------------------------------------------------------


  Elastic Compliance Matrix: (Units=1/GPa)

-------------------------------------------------------------------------------
  Indices      1         2         3         4         5         6    
-------------------------------------------------------------------------------
       1    0.002809 -0.000831 -0.000546 -0.000806  0.000000  0.000000
       2   -0.000831  0.002809 -0.000546  0.000806  0.000000 -0.000000
       3   -0.000546 -0.000546  0.002524 -0.000000 -0.000000 -0.000000
       4   -0.000806  0.000806 -0.000000  0.008420 -0.000000  0.000000
       5    0.000000  0.000000 -0.000000 -0.000000  0.008420 -0.001613
       6    0.000000 -0.000000 -0.000000  0.000000 -0.001613  0.007280
-------------------------------------------------------------------------------

  Mechanical properties :

-------------------------------------------------------------------------------
  Convention :                    Reuss         Voigt         Hill
-------------------------------------------------------------------------------
  Bulk  Modulus (GPa)     =     232.60075     232.60075     232.60075
  Shear Modulus (GPa)     =     133.19011     139.56191     136.37601
-------------------------------------------------------------------------------
  Velocity S-wave (km/s)  =       6.09683       6.24096       6.16932
  Velocity P-wave (km/s)  =      10.69940      10.80963      10.75466
-------------------------------------------------------------------------------
  Compressibility (1/GPa) =    0.00429921
-------------------------------------------------------------------------------
  Stress axis :                     x             y             z
-------------------------------------------------------------------------------
  Youngs Moduli (GPa)     =     355.95460     355.95460     396.15028
-------------------------------------------------------------------------------
  Poissons Ratio (x)      =                     0.29568       0.21614
  Poissons Ratio (y)      =       0.29568                     0.21614
  Poissons Ratio (z)      =       0.19421       0.19421
-------------------------------------------------------------------------------


  Piezoelectric Strain Matrix: (Units=C/m**2)

-------------------------------------------------------------------------------
  Indices      1         2         3         4         5         6    
-------------------------------------------------------------------------------
       x    -0.00000  -0.00000   0.00000  -0.00000  -0.00000  -0.00000
       y    -0.00000   0.00000   0.00000   0.00000  -0.00000  -0.00000
       z    -0.00000   0.00000  -0.00000   0.00000   0.00000  -0.00000
-------------------------------------------------------------------------------


  Piezoelectric Stress Matrix: (Units=10**-11 C/N)

-------------------------------------------------------------------------------
  Indices      1         2         3         4         5         6    
-------------------------------------------------------------------------------
       x    -0.00000  -0.00000   0.00000  -0.00000  -0.00000  -0.00000
       y    -0.00000   0.00000   0.00000   0.00000  -0.00000  -0.00000
       z    -0.00000   0.00000  -0.00000   0.00000   0.00000  -0.00000
-------------------------------------------------------------------------------


  Static dielectric constant tensor : 

-------------------------------------------------------------------------------
              x         y         z
-------------------------------------------------------------------------------
       x     7.83310   0.00000   0.00000
       y     0.00000   7.83310   0.00000
       z     0.00000   0.00000   7.83310
--------------------------------------------------------------------------------

  Static refractive indices : 

-------------------------------------------------------------------------------
    1 =    2.79877      2 =    2.79877      3 =    2.79877
-------------------------------------------------------------------------------


  Phonon Calculation : 

  Number of k points for this configuration =        4

--------------------------------------------------------------------------------
  K point      1 =   0.250000  0.250000  0.250000  Weight =    0.250
--------------------------------------------------------------------------------

  Frequencies (cm-1) [NB: Negative implies an imaginary mode]:

  187.35  187.35  381.13  385.23  385.23 1021.55


--------------------------------------------------------------------------------
  K point      2 =   0.250000  0.250000  0.750000  Weight =    0.250
--------------------------------------------------------------------------------

  Frequencies (cm-1) [NB: Negative implies an imaginary mode]:

  310.60  387.19  412.44  457.33  546.78  783.06


--------------------------------------------------------------------------------
  K point      3 =   0.250000  0.750000  0.250000  Weight =    0.250
--------------------------------------------------------------------------------

  Frequencies (cm-1) [NB: Negative implies an imaginary mode]:

  310.60  387.19  412.44  457.33  546.78  783.06


--------------------------------------------------------------------------------
  K point      4 =   0.250000  0.750000  0.750000  Weight =    0.250
--------------------------------------------------------------------------------

  Frequencies (cm-1) [NB: Negative implies an imaginary mode]:

  310.60  387.19  412.44  457.33  546.78  783.06


--------------------------------------------------------------------------------
  Phonon properties (per mole of unit cells): Temperature =      0.000 K
--------------------------------------------------------------------------------
  Zero point energy            =        0.174199 eV
--------------------------------------------------------------------------------

  Phonon density of states : 

--------------------------------------------------------------------------------
 Frequency (cm-1) Density of States                                             
--------------------------------------------------------------------------------
    0.00000 |                                                              0.000
   15.96180 |                                                              0.000
   31.92359 |                                                              0.000
   47.88539 |                                                              0.000
   63.84718 |                                                              0.000
   79.80898 |                                                              0.000
   95.77077 |                                                              0.000
  111.73257 |                                                              0.000
  127.69436 |                                                              0.000
  143.65616 |                                                              0.000
  159.61795 |                                                              0.000
  175.57975 |************************                                      0.083
  191.54154 |                                                              0.000
  207.50334 |                                                              0.000
  223.46513 |                                                              0.000
  239.42693 |                                                              0.000
  255.38872 |                                                              0.000
  271.35052 |                                                              0.000
  287.31231 |                                                              0.000
  303.27411 |************************************                          0.125
  319.23590 |                                                              0.000
  335.19770 |                                                              0.000
  351.15950 |                                                              0.000
  367.12129 |************                                                  0.042
  383.08309 |************************************************************  0.208
  399.04488 |************************************                          0.125
  415.00668 |                                                              0.000
  430.96847 |                                                              0.000
  446.93027 |************************************                          0.125
  462.89206 |                                                              0.000
  478.85386 |                                                              0.000
  494.81565 |                                                              0.000
  510.77745 |                                                              0.000
  526.73924 |                                                              0.000
  542.70104 |************************************                          0.125
  558.66283 |                                                              0.000
  574.62463 |                                                              0.000
  590.58642 |                                                              0.000
  606.54822 |                                                              0.000
  622.51001 |                                                              0.000
  638.47181 |                                                              0.000
  654.43360 |                                                              0.000
  670.39540 |                                                              0.000
  686.35719 |                                                              0.000
  702.31899 |                                                              0.000
  718.28079 |                                                              0.000
  734.24258 |                                                              0.000
  750.20438 |                                                              0.000
  766.16617 |                                                              0.000
  782.12797 |************************************                          0.125
  798.08976 |                                                              0.000
  814.05156 |                                                              0.000
  830.01335 |                                                              0.000
  845.97515 |                                                              0.000
  861.93694 |                                                              0.000
  877.89874 |                                                              0.000
  893.86053 |                                                              0.000
  909.82233 |                                                              0.000
  925.78412 |                                                              0.000
  941.74592 |                                                              0.000
  957.70771 |                                                              0.000
  973.66951 |                                                              0.000
  989.63130 |                                                              0.000
 1005.59310 |************                                                  0.042
--------------------------------------------------------------------------------




  Phonon density of states written as mgo_ph_dos_2.dens             



  Time to end of properties =       0.0156 seconds


  Peak dynamic memory used =       0.47 MB 


  Timing analysis for GULP :

--------------------------------------------------------------------------------
  Task / Subroutine                                          Time (Seconds)
--------------------------------------------------------------------------------
--------------------------------------------------------------------------------
  Total CPU time                                                  0.0156
--------------------------------------------------------------------------------


  Job Finished at 14:03.18 21st November   2022                               

