********************************************************************************
*                       GENERAL UTILITY LATTICE PROGRAM                        *
*                                 Julian Gale                                  *
*                      Nanochemistry Research Institute                        *
*                           Department of Chemistry                            *
*                    Curtin University, Western Australia                      *
********************************************************************************
* Version = 4.3.5 * Last modified = 16th December 2015                         *
********************************************************************************
*  single       - perform a single point run                                   *
*  conp         - constant pressure calculation                                *
*  phonon       - calculate phonons for final geometry                         *
********************************************************************************
* ASE calculation                                                              *
********************************************************************************


  Job Started  at 14:10.25 21st November   2022                               

  Number of CPUs =     1


  Total number of configurations input =   1

********************************************************************************
*  Input for Configuration =   1                                               *
********************************************************************************

  Formula = MgO                                                         

  Number of irreducible atoms/shells =       2


  Total number atoms/shells =       2

  Dimensionality = 3               :  Bulk   



  Cartesian lattice vectors (Angstroms) :

        2.978334    0.000000    0.000000
        1.489167    2.579313    0.000000
        1.489167    0.859771    2.431800

  Cell parameters (Angstroms/Degrees):

  a =       2.9783    alpha =  60.0000
  b =       2.9783    beta  =  60.0000
  c =       2.9783    gamma =  60.0000

  Initial cell volume =          18.681219 Angs**3

  Shrinking factors =     12    12    12

  Temperature of configuration =  0.000     K 

  Pressure of configuration =         0.000 GPa 

  Fractional coordinates of asymmetric unit :

--------------------------------------------------------------------------------
   No.  Atomic       x           y          z         Charge      Occupancy
        Label      (Frac)      (Frac)     (Frac)        (e)         (Frac)  
--------------------------------------------------------------------------------
      1 Mg    c    0.000000    0.000000    0.000000     2.00000    1.000000    
      2 O     c    0.500000    0.500000    0.500000    -2.00000    1.000000    
--------------------------------------------------------------------------------


  Brillouin zone sampling points :

--------------------------------------------------------------------------------
  Point number          x          y          z            Weight
--------------------------------------------------------------------------------
        1           0.041667   0.041667   0.041667         0.0012
        2           0.041667   0.041667   0.125000         0.0012
        3           0.041667   0.041667   0.208333         0.0012
        4           0.041667   0.041667   0.291667         0.0012
        5           0.041667   0.041667   0.375000         0.0012
        6           0.041667   0.041667   0.458333         0.0012
        7           0.041667   0.041667   0.541667         0.0012
        8           0.041667   0.041667   0.625000         0.0012
        9           0.041667   0.041667   0.708333         0.0012
       10           0.041667   0.041667   0.791667         0.0012
       11           0.041667   0.041667   0.875000         0.0012
       12           0.041667   0.041667   0.958333         0.0012
       13           0.041667   0.125000   0.041667         0.0012
       14           0.041667   0.125000   0.125000         0.0012
       15           0.041667   0.125000   0.208333         0.0012
       16           0.041667   0.125000   0.291667         0.0012
       17           0.041667   0.125000   0.375000         0.0012
       18           0.041667   0.125000   0.458333         0.0012
       19           0.041667   0.125000   0.541667         0.0012
       20           0.041667   0.125000   0.625000         0.0012
       21           0.041667   0.125000   0.708333         0.0012
       22           0.041667   0.125000   0.791667         0.0012
       23           0.041667   0.125000   0.875000         0.0012
       24           0.041667   0.125000   0.958333         0.0012
       25           0.041667   0.208333   0.041667         0.0012
       26           0.041667   0.208333   0.125000         0.0012
       27           0.041667   0.208333   0.208333         0.0012
       28           0.041667   0.208333   0.291667         0.0012
       29           0.041667   0.208333   0.375000         0.0012
       30           0.041667   0.208333   0.458333         0.0012
       31           0.041667   0.208333   0.541667         0.0012
       32           0.041667   0.208333   0.625000         0.0012
       33           0.041667   0.208333   0.708333         0.0012
       34           0.041667   0.208333   0.791667         0.0012
       35           0.041667   0.208333   0.875000         0.0012
       36           0.041667   0.208333   0.958333         0.0012
       37           0.041667   0.291667   0.041667         0.0012
       38           0.041667   0.291667   0.125000         0.0012
       39           0.041667   0.291667   0.208333         0.0012
       40           0.041667   0.291667   0.291667         0.0012
       41           0.041667   0.291667   0.375000         0.0012
       42           0.041667   0.291667   0.458333         0.0012
       43           0.041667   0.291667   0.541667         0.0012
       44           0.041667   0.291667   0.625000         0.0012
       45           0.041667   0.291667   0.708333         0.0012
       46           0.041667   0.291667   0.791667         0.0012
       47           0.041667   0.291667   0.875000         0.0012
       48           0.041667   0.291667   0.958333         0.0012
       49           0.041667   0.375000   0.041667         0.0012
       50           0.041667   0.375000   0.125000         0.0012
       51           0.041667   0.375000   0.208333         0.0012
       52           0.041667   0.375000   0.291667         0.0012
       53           0.041667   0.375000   0.375000         0.0012
       54           0.041667   0.375000   0.458333         0.0012
       55           0.041667   0.375000   0.541667         0.0012
       56           0.041667   0.375000   0.625000         0.0012
       57           0.041667   0.375000   0.708333         0.0012
       58           0.041667   0.375000   0.791667         0.0012
       59           0.041667   0.375000   0.875000         0.0012
       60           0.041667   0.375000   0.958333         0.0012
       61           0.041667   0.458333   0.041667         0.0012
       62           0.041667   0.458333   0.125000         0.0012
       63           0.041667   0.458333   0.208333         0.0012
       64           0.041667   0.458333   0.291667         0.0012
       65           0.041667   0.458333   0.375000         0.0012
       66           0.041667   0.458333   0.458333         0.0012
       67           0.041667   0.458333   0.541667         0.0012
       68           0.041667   0.458333   0.625000         0.0012
       69           0.041667   0.458333   0.708333         0.0012
       70           0.041667   0.458333   0.791667         0.0012
       71           0.041667   0.458333   0.875000         0.0012
       72           0.041667   0.458333   0.958333         0.0012
       73           0.041667   0.541667   0.041667         0.0012
       74           0.041667   0.541667   0.125000         0.0012
       75           0.041667   0.541667   0.208333         0.0012
       76           0.041667   0.541667   0.291667         0.0012
       77           0.041667   0.541667   0.375000         0.0012
       78           0.041667   0.541667   0.458333         0.0012
       79           0.041667   0.541667   0.541667         0.0012
       80           0.041667   0.541667   0.625000         0.0012
       81           0.041667   0.541667   0.708333         0.0012
       82           0.041667   0.541667   0.791667         0.0012
       83           0.041667   0.541667   0.875000         0.0012
       84           0.041667   0.541667   0.958333         0.0012
       85           0.041667   0.625000   0.041667         0.0012
       86           0.041667   0.625000   0.125000         0.0012
       87           0.041667   0.625000   0.208333         0.0012
       88           0.041667   0.625000   0.291667         0.0012
       89           0.041667   0.625000   0.375000         0.0012
       90           0.041667   0.625000   0.458333         0.0012
       91           0.041667   0.625000   0.541667         0.0012
       92           0.041667   0.625000   0.625000         0.0012
       93           0.041667   0.625000   0.708333         0.0012
       94           0.041667   0.625000   0.791667         0.0012
       95           0.041667   0.625000   0.875000         0.0012
       96           0.041667   0.625000   0.958333         0.0012
       97           0.041667   0.708333   0.041667         0.0012
       98           0.041667   0.708333   0.125000         0.0012
       99           0.041667   0.708333   0.208333         0.0012
      100           0.041667   0.708333   0.291667         0.0012
      101           0.041667   0.708333   0.375000         0.0012
      102           0.041667   0.708333   0.458333         0.0012
      103           0.041667   0.708333   0.541667         0.0012
      104           0.041667   0.708333   0.625000         0.0012
      105           0.041667   0.708333   0.708333         0.0012
      106           0.041667   0.708333   0.791667         0.0012
      107           0.041667   0.708333   0.875000         0.0012
      108           0.041667   0.708333   0.958333         0.0012
      109           0.041667   0.791667   0.041667         0.0012
      110           0.041667   0.791667   0.125000         0.0012
      111           0.041667   0.791667   0.208333         0.0012
      112           0.041667   0.791667   0.291667         0.0012
      113           0.041667   0.791667   0.375000         0.0012
      114           0.041667   0.791667   0.458333         0.0012
      115           0.041667   0.791667   0.541667         0.0012
      116           0.041667   0.791667   0.625000         0.0012
      117           0.041667   0.791667   0.708333         0.0012
      118           0.041667   0.791667   0.791667         0.0012
      119           0.041667   0.791667   0.875000         0.0012
      120           0.041667   0.791667   0.958333         0.0012
      121           0.041667   0.875000   0.041667         0.0012
      122           0.041667   0.875000   0.125000         0.0012
      123           0.041667   0.875000   0.208333         0.0012
      124           0.041667   0.875000   0.291667         0.0012
      125           0.041667   0.875000   0.375000         0.0012
      126           0.041667   0.875000   0.458333         0.0012
      127           0.041667   0.875000   0.541667         0.0012
      128           0.041667   0.875000   0.625000         0.0012
      129           0.041667   0.875000   0.708333         0.0012
      130           0.041667   0.875000   0.791667         0.0012
      131           0.041667   0.875000   0.875000         0.0012
      132           0.041667   0.875000   0.958333         0.0012
      133           0.041667   0.958333   0.041667         0.0012
      134           0.041667   0.958333   0.125000         0.0012
      135           0.041667   0.958333   0.208333         0.0012
      136           0.041667   0.958333   0.291667         0.0012
      137           0.041667   0.958333   0.375000         0.0012
      138           0.041667   0.958333   0.458333         0.0012
      139           0.041667   0.958333   0.541667         0.0012
      140           0.041667   0.958333   0.625000         0.0012
      141           0.041667   0.958333   0.708333         0.0012
      142           0.041667   0.958333   0.791667         0.0012
      143           0.041667   0.958333   0.875000         0.0012
      144           0.041667   0.958333   0.958333         0.0012
      145           0.125000   0.041667   0.041667         0.0012
      146           0.125000   0.041667   0.125000         0.0012
      147           0.125000   0.041667   0.208333         0.0012
      148           0.125000   0.041667   0.291667         0.0012
      149           0.125000   0.041667   0.375000         0.0012
      150           0.125000   0.041667   0.458333         0.0012
      151           0.125000   0.041667   0.541667         0.0012
      152           0.125000   0.041667   0.625000         0.0012
      153           0.125000   0.041667   0.708333         0.0012
      154           0.125000   0.041667   0.791667         0.0012
      155           0.125000   0.041667   0.875000         0.0012
      156           0.125000   0.041667   0.958333         0.0012
      157           0.125000   0.125000   0.041667         0.0012
      158           0.125000   0.125000   0.125000         0.0012
      159           0.125000   0.125000   0.208333         0.0012
      160           0.125000   0.125000   0.291667         0.0012
      161           0.125000   0.125000   0.375000         0.0012
      162           0.125000   0.125000   0.458333         0.0012
      163           0.125000   0.125000   0.541667         0.0012
      164           0.125000   0.125000   0.625000         0.0012
      165           0.125000   0.125000   0.708333         0.0012
      166           0.125000   0.125000   0.791667         0.0012
      167           0.125000   0.125000   0.875000         0.0012
      168           0.125000   0.125000   0.958333         0.0012
      169           0.125000   0.208333   0.041667         0.0012
      170           0.125000   0.208333   0.125000         0.0012
      171           0.125000   0.208333   0.208333         0.0012
      172           0.125000   0.208333   0.291667         0.0012
      173           0.125000   0.208333   0.375000         0.0012
      174           0.125000   0.208333   0.458333         0.0012
      175           0.125000   0.208333   0.541667         0.0012
      176           0.125000   0.208333   0.625000         0.0012
      177           0.125000   0.208333   0.708333         0.0012
      178           0.125000   0.208333   0.791667         0.0012
      179           0.125000   0.208333   0.875000         0.0012
      180           0.125000   0.208333   0.958333         0.0012
      181           0.125000   0.291667   0.041667         0.0012
      182           0.125000   0.291667   0.125000         0.0012
      183           0.125000   0.291667   0.208333         0.0012
      184           0.125000   0.291667   0.291667         0.0012
      185           0.125000   0.291667   0.375000         0.0012
      186           0.125000   0.291667   0.458333         0.0012
      187           0.125000   0.291667   0.541667         0.0012
      188           0.125000   0.291667   0.625000         0.0012
      189           0.125000   0.291667   0.708333         0.0012
      190           0.125000   0.291667   0.791667         0.0012
      191           0.125000   0.291667   0.875000         0.0012
      192           0.125000   0.291667   0.958333         0.0012
      193           0.125000   0.375000   0.041667         0.0012
      194           0.125000   0.375000   0.125000         0.0012
      195           0.125000   0.375000   0.208333         0.0012
      196           0.125000   0.375000   0.291667         0.0012
      197           0.125000   0.375000   0.375000         0.0012
      198           0.125000   0.375000   0.458333         0.0012
      199           0.125000   0.375000   0.541667         0.0012
      200           0.125000   0.375000   0.625000         0.0012
      201           0.125000   0.375000   0.708333         0.0012
      202           0.125000   0.375000   0.791667         0.0012
      203           0.125000   0.375000   0.875000         0.0012
      204           0.125000   0.375000   0.958333         0.0012
      205           0.125000   0.458333   0.041667         0.0012
      206           0.125000   0.458333   0.125000         0.0012
      207           0.125000   0.458333   0.208333         0.0012
      208           0.125000   0.458333   0.291667         0.0012
      209           0.125000   0.458333   0.375000         0.0012
      210           0.125000   0.458333   0.458333         0.0012
      211           0.125000   0.458333   0.541667         0.0012
      212           0.125000   0.458333   0.625000         0.0012
      213           0.125000   0.458333   0.708333         0.0012
      214           0.125000   0.458333   0.791667         0.0012
      215           0.125000   0.458333   0.875000         0.0012
      216           0.125000   0.458333   0.958333         0.0012
      217           0.125000   0.541667   0.041667         0.0012
      218           0.125000   0.541667   0.125000         0.0012
      219           0.125000   0.541667   0.208333         0.0012
      220           0.125000   0.541667   0.291667         0.0012
      221           0.125000   0.541667   0.375000         0.0012
      222           0.125000   0.541667   0.458333         0.0012
      223           0.125000   0.541667   0.541667         0.0012
      224           0.125000   0.541667   0.625000         0.0012
      225           0.125000   0.541667   0.708333         0.0012
      226           0.125000   0.541667   0.791667         0.0012
      227           0.125000   0.541667   0.875000         0.0012
      228           0.125000   0.541667   0.958333         0.0012
      229           0.125000   0.625000   0.041667         0.0012
      230           0.125000   0.625000   0.125000         0.0012
      231           0.125000   0.625000   0.208333         0.0012
      232           0.125000   0.625000   0.291667         0.0012
      233           0.125000   0.625000   0.375000         0.0012
      234           0.125000   0.625000   0.458333         0.0012
      235           0.125000   0.625000   0.541667         0.0012
      236           0.125000   0.625000   0.625000         0.0012
      237           0.125000   0.625000   0.708333         0.0012
      238           0.125000   0.625000   0.791667         0.0012
      239           0.125000   0.625000   0.875000         0.0012
      240           0.125000   0.625000   0.958333         0.0012
      241           0.125000   0.708333   0.041667         0.0012
      242           0.125000   0.708333   0.125000         0.0012
      243           0.125000   0.708333   0.208333         0.0012
      244           0.125000   0.708333   0.291667         0.0012
      245           0.125000   0.708333   0.375000         0.0012
      246           0.125000   0.708333   0.458333         0.0012
      247           0.125000   0.708333   0.541667         0.0012
      248           0.125000   0.708333   0.625000         0.0012
      249           0.125000   0.708333   0.708333         0.0012
      250           0.125000   0.708333   0.791667         0.0012
      251           0.125000   0.708333   0.875000         0.0012
      252           0.125000   0.708333   0.958333         0.0012
      253           0.125000   0.791667   0.041667         0.0012
      254           0.125000   0.791667   0.125000         0.0012
      255           0.125000   0.791667   0.208333         0.0012
      256           0.125000   0.791667   0.291667         0.0012
      257           0.125000   0.791667   0.375000         0.0012
      258           0.125000   0.791667   0.458333         0.0012
      259           0.125000   0.791667   0.541667         0.0012
      260           0.125000   0.791667   0.625000         0.0012
      261           0.125000   0.791667   0.708333         0.0012
      262           0.125000   0.791667   0.791667         0.0012
      263           0.125000   0.791667   0.875000         0.0012
      264           0.125000   0.791667   0.958333         0.0012
      265           0.125000   0.875000   0.041667         0.0012
      266           0.125000   0.875000   0.125000         0.0012
      267           0.125000   0.875000   0.208333         0.0012
      268           0.125000   0.875000   0.291667         0.0012
      269           0.125000   0.875000   0.375000         0.0012
      270           0.125000   0.875000   0.458333         0.0012
      271           0.125000   0.875000   0.541667         0.0012
      272           0.125000   0.875000   0.625000         0.0012
      273           0.125000   0.875000   0.708333         0.0012
      274           0.125000   0.875000   0.791667         0.0012
      275           0.125000   0.875000   0.875000         0.0012
      276           0.125000   0.875000   0.958333         0.0012
      277           0.125000   0.958333   0.041667         0.0012
      278           0.125000   0.958333   0.125000         0.0012
      279           0.125000   0.958333   0.208333         0.0012
      280           0.125000   0.958333   0.291667         0.0012
      281           0.125000   0.958333   0.375000         0.0012
      282           0.125000   0.958333   0.458333         0.0012
      283           0.125000   0.958333   0.541667         0.0012
      284           0.125000   0.958333   0.625000         0.0012
      285           0.125000   0.958333   0.708333         0.0012
      286           0.125000   0.958333   0.791667         0.0012
      287           0.125000   0.958333   0.875000         0.0012
      288           0.125000   0.958333   0.958333         0.0012
      289           0.208333   0.041667   0.041667         0.0012
      290           0.208333   0.041667   0.125000         0.0012
      291           0.208333   0.041667   0.208333         0.0012
      292           0.208333   0.041667   0.291667         0.0012
      293           0.208333   0.041667   0.375000         0.0012
      294           0.208333   0.041667   0.458333         0.0012
      295           0.208333   0.041667   0.541667         0.0012
      296           0.208333   0.041667   0.625000         0.0012
      297           0.208333   0.041667   0.708333         0.0012
      298           0.208333   0.041667   0.791667         0.0012
      299           0.208333   0.041667   0.875000         0.0012
      300           0.208333   0.041667   0.958333         0.0012
      301           0.208333   0.125000   0.041667         0.0012
      302           0.208333   0.125000   0.125000         0.0012
      303           0.208333   0.125000   0.208333         0.0012
      304           0.208333   0.125000   0.291667         0.0012
      305           0.208333   0.125000   0.375000         0.0012
      306           0.208333   0.125000   0.458333         0.0012
      307           0.208333   0.125000   0.541667         0.0012
      308           0.208333   0.125000   0.625000         0.0012
      309           0.208333   0.125000   0.708333         0.0012
      310           0.208333   0.125000   0.791667         0.0012
      311           0.208333   0.125000   0.875000         0.0012
      312           0.208333   0.125000   0.958333         0.0012
      313           0.208333   0.208333   0.041667         0.0012
      314           0.208333   0.208333   0.125000         0.0012
      315           0.208333   0.208333   0.208333         0.0012
      316           0.208333   0.208333   0.291667         0.0012
      317           0.208333   0.208333   0.375000         0.0012
      318           0.208333   0.208333   0.458333         0.0012
      319           0.208333   0.208333   0.541667         0.0012
      320           0.208333   0.208333   0.625000         0.0012
      321           0.208333   0.208333   0.708333         0.0012
      322           0.208333   0.208333   0.791667         0.0012
      323           0.208333   0.208333   0.875000         0.0012
      324           0.208333   0.208333   0.958333         0.0012
      325           0.208333   0.291667   0.041667         0.0012
      326           0.208333   0.291667   0.125000         0.0012
      327           0.208333   0.291667   0.208333         0.0012
      328           0.208333   0.291667   0.291667         0.0012
      329           0.208333   0.291667   0.375000         0.0012
      330           0.208333   0.291667   0.458333         0.0012
      331           0.208333   0.291667   0.541667         0.0012
      332           0.208333   0.291667   0.625000         0.0012
      333           0.208333   0.291667   0.708333         0.0012
      334           0.208333   0.291667   0.791667         0.0012
      335           0.208333   0.291667   0.875000         0.0012
      336           0.208333   0.291667   0.958333         0.0012
      337           0.208333   0.375000   0.041667         0.0012
      338           0.208333   0.375000   0.125000         0.0012
      339           0.208333   0.375000   0.208333         0.0012
      340           0.208333   0.375000   0.291667         0.0012
      341           0.208333   0.375000   0.375000         0.0012
      342           0.208333   0.375000   0.458333         0.0012
      343           0.208333   0.375000   0.541667         0.0012
      344           0.208333   0.375000   0.625000         0.0012
      345           0.208333   0.375000   0.708333         0.0012
      346           0.208333   0.375000   0.791667         0.0012
      347           0.208333   0.375000   0.875000         0.0012
      348           0.208333   0.375000   0.958333         0.0012
      349           0.208333   0.458333   0.041667         0.0012
      350           0.208333   0.458333   0.125000         0.0012
      351           0.208333   0.458333   0.208333         0.0012
      352           0.208333   0.458333   0.291667         0.0012
      353           0.208333   0.458333   0.375000         0.0012
      354           0.208333   0.458333   0.458333         0.0012
      355           0.208333   0.458333   0.541667         0.0012
      356           0.208333   0.458333   0.625000         0.0012
      357           0.208333   0.458333   0.708333         0.0012
      358           0.208333   0.458333   0.791667         0.0012
      359           0.208333   0.458333   0.875000         0.0012
      360           0.208333   0.458333   0.958333         0.0012
      361           0.208333   0.541667   0.041667         0.0012
      362           0.208333   0.541667   0.125000         0.0012
      363           0.208333   0.541667   0.208333         0.0012
      364           0.208333   0.541667   0.291667         0.0012
      365           0.208333   0.541667   0.375000         0.0012
      366           0.208333   0.541667   0.458333         0.0012
      367           0.208333   0.541667   0.541667         0.0012
      368           0.208333   0.541667   0.625000         0.0012
      369           0.208333   0.541667   0.708333         0.0012
      370           0.208333   0.541667   0.791667         0.0012
      371           0.208333   0.541667   0.875000         0.0012
      372           0.208333   0.541667   0.958333         0.0012
      373           0.208333   0.625000   0.041667         0.0012
      374           0.208333   0.625000   0.125000         0.0012
      375           0.208333   0.625000   0.208333         0.0012
      376           0.208333   0.625000   0.291667         0.0012
      377           0.208333   0.625000   0.375000         0.0012
      378           0.208333   0.625000   0.458333         0.0012
      379           0.208333   0.625000   0.541667         0.0012
      380           0.208333   0.625000   0.625000         0.0012
      381           0.208333   0.625000   0.708333         0.0012
      382           0.208333   0.625000   0.791667         0.0012
      383           0.208333   0.625000   0.875000         0.0012
      384           0.208333   0.625000   0.958333         0.0012
      385           0.208333   0.708333   0.041667         0.0012
      386           0.208333   0.708333   0.125000         0.0012
      387           0.208333   0.708333   0.208333         0.0012
      388           0.208333   0.708333   0.291667         0.0012
      389           0.208333   0.708333   0.375000         0.0012
      390           0.208333   0.708333   0.458333         0.0012
      391           0.208333   0.708333   0.541667         0.0012
      392           0.208333   0.708333   0.625000         0.0012
      393           0.208333   0.708333   0.708333         0.0012
      394           0.208333   0.708333   0.791667         0.0012
      395           0.208333   0.708333   0.875000         0.0012
      396           0.208333   0.708333   0.958333         0.0012
      397           0.208333   0.791667   0.041667         0.0012
      398           0.208333   0.791667   0.125000         0.0012
      399           0.208333   0.791667   0.208333         0.0012
      400           0.208333   0.791667   0.291667         0.0012
      401           0.208333   0.791667   0.375000         0.0012
      402           0.208333   0.791667   0.458333         0.0012
      403           0.208333   0.791667   0.541667         0.0012
      404           0.208333   0.791667   0.625000         0.0012
      405           0.208333   0.791667   0.708333         0.0012
      406           0.208333   0.791667   0.791667         0.0012
      407           0.208333   0.791667   0.875000         0.0012
      408           0.208333   0.791667   0.958333         0.0012
      409           0.208333   0.875000   0.041667         0.0012
      410           0.208333   0.875000   0.125000         0.0012
      411           0.208333   0.875000   0.208333         0.0012
      412           0.208333   0.875000   0.291667         0.0012
      413           0.208333   0.875000   0.375000         0.0012
      414           0.208333   0.875000   0.458333         0.0012
      415           0.208333   0.875000   0.541667         0.0012
      416           0.208333   0.875000   0.625000         0.0012
      417           0.208333   0.875000   0.708333         0.0012
      418           0.208333   0.875000   0.791667         0.0012
      419           0.208333   0.875000   0.875000         0.0012
      420           0.208333   0.875000   0.958333         0.0012
      421           0.208333   0.958333   0.041667         0.0012
      422           0.208333   0.958333   0.125000         0.0012
      423           0.208333   0.958333   0.208333         0.0012
      424           0.208333   0.958333   0.291667         0.0012
      425           0.208333   0.958333   0.375000         0.0012
      426           0.208333   0.958333   0.458333         0.0012
      427           0.208333   0.958333   0.541667         0.0012
      428           0.208333   0.958333   0.625000         0.0012
      429           0.208333   0.958333   0.708333         0.0012
      430           0.208333   0.958333   0.791667         0.0012
      431           0.208333   0.958333   0.875000         0.0012
      432           0.208333   0.958333   0.958333         0.0012
      433           0.291667   0.041667   0.041667         0.0012
      434           0.291667   0.041667   0.125000         0.0012
      435           0.291667   0.041667   0.208333         0.0012
      436           0.291667   0.041667   0.291667         0.0012
      437           0.291667   0.041667   0.375000         0.0012
      438           0.291667   0.041667   0.458333         0.0012
      439           0.291667   0.041667   0.541667         0.0012
      440           0.291667   0.041667   0.625000         0.0012
      441           0.291667   0.041667   0.708333         0.0012
      442           0.291667   0.041667   0.791667         0.0012
      443           0.291667   0.041667   0.875000         0.0012
      444           0.291667   0.041667   0.958333         0.0012
      445           0.291667   0.125000   0.041667         0.0012
      446           0.291667   0.125000   0.125000         0.0012
      447           0.291667   0.125000   0.208333         0.0012
      448           0.291667   0.125000   0.291667         0.0012
      449           0.291667   0.125000   0.375000         0.0012
      450           0.291667   0.125000   0.458333         0.0012
      451           0.291667   0.125000   0.541667         0.0012
      452           0.291667   0.125000   0.625000         0.0012
      453           0.291667   0.125000   0.708333         0.0012
      454           0.291667   0.125000   0.791667         0.0012
      455           0.291667   0.125000   0.875000         0.0012
      456           0.291667   0.125000   0.958333         0.0012
      457           0.291667   0.208333   0.041667         0.0012
      458           0.291667   0.208333   0.125000         0.0012
      459           0.291667   0.208333   0.208333         0.0012
      460           0.291667   0.208333   0.291667         0.0012
      461           0.291667   0.208333   0.375000         0.0012
      462           0.291667   0.208333   0.458333         0.0012
      463           0.291667   0.208333   0.541667         0.0012
      464           0.291667   0.208333   0.625000         0.0012
      465           0.291667   0.208333   0.708333         0.0012
      466           0.291667   0.208333   0.791667         0.0012
      467           0.291667   0.208333   0.875000         0.0012
      468           0.291667   0.208333   0.958333         0.0012
      469           0.291667   0.291667   0.041667         0.0012
      470           0.291667   0.291667   0.125000         0.0012
      471           0.291667   0.291667   0.208333         0.0012
      472           0.291667   0.291667   0.291667         0.0012
      473           0.291667   0.291667   0.375000         0.0012
      474           0.291667   0.291667   0.458333         0.0012
      475           0.291667   0.291667   0.541667         0.0012
      476           0.291667   0.291667   0.625000         0.0012
      477           0.291667   0.291667   0.708333         0.0012
      478           0.291667   0.291667   0.791667         0.0012
      479           0.291667   0.291667   0.875000         0.0012
      480           0.291667   0.291667   0.958333         0.0012
      481           0.291667   0.375000   0.041667         0.0012
      482           0.291667   0.375000   0.125000         0.0012
      483           0.291667   0.375000   0.208333         0.0012
      484           0.291667   0.375000   0.291667         0.0012
      485           0.291667   0.375000   0.375000         0.0012
      486           0.291667   0.375000   0.458333         0.0012
      487           0.291667   0.375000   0.541667         0.0012
      488           0.291667   0.375000   0.625000         0.0012
      489           0.291667   0.375000   0.708333         0.0012
      490           0.291667   0.375000   0.791667         0.0012
      491           0.291667   0.375000   0.875000         0.0012
      492           0.291667   0.375000   0.958333         0.0012
      493           0.291667   0.458333   0.041667         0.0012
      494           0.291667   0.458333   0.125000         0.0012
      495           0.291667   0.458333   0.208333         0.0012
      496           0.291667   0.458333   0.291667         0.0012
      497           0.291667   0.458333   0.375000         0.0012
      498           0.291667   0.458333   0.458333         0.0012
      499           0.291667   0.458333   0.541667         0.0012
      500           0.291667   0.458333   0.625000         0.0012
      501           0.291667   0.458333   0.708333         0.0012
      502           0.291667   0.458333   0.791667         0.0012
      503           0.291667   0.458333   0.875000         0.0012
      504           0.291667   0.458333   0.958333         0.0012
      505           0.291667   0.541667   0.041667         0.0012
      506           0.291667   0.541667   0.125000         0.0012
      507           0.291667   0.541667   0.208333         0.0012
      508           0.291667   0.541667   0.291667         0.0012
      509           0.291667   0.541667   0.375000         0.0012
      510           0.291667   0.541667   0.458333         0.0012
      511           0.291667   0.541667   0.541667         0.0012
      512           0.291667   0.541667   0.625000         0.0012
      513           0.291667   0.541667   0.708333         0.0012
      514           0.291667   0.541667   0.791667         0.0012
      515           0.291667   0.541667   0.875000         0.0012
      516           0.291667   0.541667   0.958333         0.0012
      517           0.291667   0.625000   0.041667         0.0012
      518           0.291667   0.625000   0.125000         0.0012
      519           0.291667   0.625000   0.208333         0.0012
      520           0.291667   0.625000   0.291667         0.0012
      521           0.291667   0.625000   0.375000         0.0012
      522           0.291667   0.625000   0.458333         0.0012
      523           0.291667   0.625000   0.541667         0.0012
      524           0.291667   0.625000   0.625000         0.0012
      525           0.291667   0.625000   0.708333         0.0012
      526           0.291667   0.625000   0.791667         0.0012
      527           0.291667   0.625000   0.875000         0.0012
      528           0.291667   0.625000   0.958333         0.0012
      529           0.291667   0.708333   0.041667         0.0012
      530           0.291667   0.708333   0.125000         0.0012
      531           0.291667   0.708333   0.208333         0.0012
      532           0.291667   0.708333   0.291667         0.0012
      533           0.291667   0.708333   0.375000         0.0012
      534           0.291667   0.708333   0.458333         0.0012
      535           0.291667   0.708333   0.541667         0.0012
      536           0.291667   0.708333   0.625000         0.0012
      537           0.291667   0.708333   0.708333         0.0012
      538           0.291667   0.708333   0.791667         0.0012
      539           0.291667   0.708333   0.875000         0.0012
      540           0.291667   0.708333   0.958333         0.0012
      541           0.291667   0.791667   0.041667         0.0012
      542           0.291667   0.791667   0.125000         0.0012
      543           0.291667   0.791667   0.208333         0.0012
      544           0.291667   0.791667   0.291667         0.0012
      545           0.291667   0.791667   0.375000         0.0012
      546           0.291667   0.791667   0.458333         0.0012
      547           0.291667   0.791667   0.541667         0.0012
      548           0.291667   0.791667   0.625000         0.0012
      549           0.291667   0.791667   0.708333         0.0012
      550           0.291667   0.791667   0.791667         0.0012
      551           0.291667   0.791667   0.875000         0.0012
      552           0.291667   0.791667   0.958333         0.0012
      553           0.291667   0.875000   0.041667         0.0012
      554           0.291667   0.875000   0.125000         0.0012
      555           0.291667   0.875000   0.208333         0.0012
      556           0.291667   0.875000   0.291667         0.0012
      557           0.291667   0.875000   0.375000         0.0012
      558           0.291667   0.875000   0.458333         0.0012
      559           0.291667   0.875000   0.541667         0.0012
      560           0.291667   0.875000   0.625000         0.0012
      561           0.291667   0.875000   0.708333         0.0012
      562           0.291667   0.875000   0.791667         0.0012
      563           0.291667   0.875000   0.875000         0.0012
      564           0.291667   0.875000   0.958333         0.0012
      565           0.291667   0.958333   0.041667         0.0012
      566           0.291667   0.958333   0.125000         0.0012
      567           0.291667   0.958333   0.208333         0.0012
      568           0.291667   0.958333   0.291667         0.0012
      569           0.291667   0.958333   0.375000         0.0012
      570           0.291667   0.958333   0.458333         0.0012
      571           0.291667   0.958333   0.541667         0.0012
      572           0.291667   0.958333   0.625000         0.0012
      573           0.291667   0.958333   0.708333         0.0012
      574           0.291667   0.958333   0.791667         0.0012
      575           0.291667   0.958333   0.875000         0.0012
      576           0.291667   0.958333   0.958333         0.0012
      577           0.375000   0.041667   0.041667         0.0012
      578           0.375000   0.041667   0.125000         0.0012
      579           0.375000   0.041667   0.208333         0.0012
      580           0.375000   0.041667   0.291667         0.0012
      581           0.375000   0.041667   0.375000         0.0012
      582           0.375000   0.041667   0.458333         0.0012
      583           0.375000   0.041667   0.541667         0.0012
      584           0.375000   0.041667   0.625000         0.0012
      585           0.375000   0.041667   0.708333         0.0012
      586           0.375000   0.041667   0.791667         0.0012
      587           0.375000   0.041667   0.875000         0.0012
      588           0.375000   0.041667   0.958333         0.0012
      589           0.375000   0.125000   0.041667         0.0012
      590           0.375000   0.125000   0.125000         0.0012
      591           0.375000   0.125000   0.208333         0.0012
      592           0.375000   0.125000   0.291667         0.0012
      593           0.375000   0.125000   0.375000         0.0012
      594           0.375000   0.125000   0.458333         0.0012
      595           0.375000   0.125000   0.541667         0.0012
      596           0.375000   0.125000   0.625000         0.0012
      597           0.375000   0.125000   0.708333         0.0012
      598           0.375000   0.125000   0.791667         0.0012
      599           0.375000   0.125000   0.875000         0.0012
      600           0.375000   0.125000   0.958333         0.0012
      601           0.375000   0.208333   0.041667         0.0012
      602           0.375000   0.208333   0.125000         0.0012
      603           0.375000   0.208333   0.208333         0.0012
      604           0.375000   0.208333   0.291667         0.0012
      605           0.375000   0.208333   0.375000         0.0012
      606           0.375000   0.208333   0.458333         0.0012
      607           0.375000   0.208333   0.541667         0.0012
      608           0.375000   0.208333   0.625000         0.0012
      609           0.375000   0.208333   0.708333         0.0012
      610           0.375000   0.208333   0.791667         0.0012
      611           0.375000   0.208333   0.875000         0.0012
      612           0.375000   0.208333   0.958333         0.0012
      613           0.375000   0.291667   0.041667         0.0012
      614           0.375000   0.291667   0.125000         0.0012
      615           0.375000   0.291667   0.208333         0.0012
      616           0.375000   0.291667   0.291667         0.0012
      617           0.375000   0.291667   0.375000         0.0012
      618           0.375000   0.291667   0.458333         0.0012
      619           0.375000   0.291667   0.541667         0.0012
      620           0.375000   0.291667   0.625000         0.0012
      621           0.375000   0.291667   0.708333         0.0012
      622           0.375000   0.291667   0.791667         0.0012
      623           0.375000   0.291667   0.875000         0.0012
      624           0.375000   0.291667   0.958333         0.0012
      625           0.375000   0.375000   0.041667         0.0012
      626           0.375000   0.375000   0.125000         0.0012
      627           0.375000   0.375000   0.208333         0.0012
      628           0.375000   0.375000   0.291667         0.0012
      629           0.375000   0.375000   0.375000         0.0012
      630           0.375000   0.375000   0.458333         0.0012
      631           0.375000   0.375000   0.541667         0.0012
      632           0.375000   0.375000   0.625000         0.0012
      633           0.375000   0.375000   0.708333         0.0012
      634           0.375000   0.375000   0.791667         0.0012
      635           0.375000   0.375000   0.875000         0.0012
      636           0.375000   0.375000   0.958333         0.0012
      637           0.375000   0.458333   0.041667         0.0012
      638           0.375000   0.458333   0.125000         0.0012
      639           0.375000   0.458333   0.208333         0.0012
      640           0.375000   0.458333   0.291667         0.0012
      641           0.375000   0.458333   0.375000         0.0012
      642           0.375000   0.458333   0.458333         0.0012
      643           0.375000   0.458333   0.541667         0.0012
      644           0.375000   0.458333   0.625000         0.0012
      645           0.375000   0.458333   0.708333         0.0012
      646           0.375000   0.458333   0.791667         0.0012
      647           0.375000   0.458333   0.875000         0.0012
      648           0.375000   0.458333   0.958333         0.0012
      649           0.375000   0.541667   0.041667         0.0012
      650           0.375000   0.541667   0.125000         0.0012
      651           0.375000   0.541667   0.208333         0.0012
      652           0.375000   0.541667   0.291667         0.0012
      653           0.375000   0.541667   0.375000         0.0012
      654           0.375000   0.541667   0.458333         0.0012
      655           0.375000   0.541667   0.541667         0.0012
      656           0.375000   0.541667   0.625000         0.0012
      657           0.375000   0.541667   0.708333         0.0012
      658           0.375000   0.541667   0.791667         0.0012
      659           0.375000   0.541667   0.875000         0.0012
      660           0.375000   0.541667   0.958333         0.0012
      661           0.375000   0.625000   0.041667         0.0012
      662           0.375000   0.625000   0.125000         0.0012
      663           0.375000   0.625000   0.208333         0.0012
      664           0.375000   0.625000   0.291667         0.0012
      665           0.375000   0.625000   0.375000         0.0012
      666           0.375000   0.625000   0.458333         0.0012
      667           0.375000   0.625000   0.541667         0.0012
      668           0.375000   0.625000   0.625000         0.0012
      669           0.375000   0.625000   0.708333         0.0012
      670           0.375000   0.625000   0.791667         0.0012
      671           0.375000   0.625000   0.875000         0.0012
      672           0.375000   0.625000   0.958333         0.0012
      673           0.375000   0.708333   0.041667         0.0012
      674           0.375000   0.708333   0.125000         0.0012
      675           0.375000   0.708333   0.208333         0.0012
      676           0.375000   0.708333   0.291667         0.0012
      677           0.375000   0.708333   0.375000         0.0012
      678           0.375000   0.708333   0.458333         0.0012
      679           0.375000   0.708333   0.541667         0.0012
      680           0.375000   0.708333   0.625000         0.0012
      681           0.375000   0.708333   0.708333         0.0012
      682           0.375000   0.708333   0.791667         0.0012
      683           0.375000   0.708333   0.875000         0.0012
      684           0.375000   0.708333   0.958333         0.0012
      685           0.375000   0.791667   0.041667         0.0012
      686           0.375000   0.791667   0.125000         0.0012
      687           0.375000   0.791667   0.208333         0.0012
      688           0.375000   0.791667   0.291667         0.0012
      689           0.375000   0.791667   0.375000         0.0012
      690           0.375000   0.791667   0.458333         0.0012
      691           0.375000   0.791667   0.541667         0.0012
      692           0.375000   0.791667   0.625000         0.0012
      693           0.375000   0.791667   0.708333         0.0012
      694           0.375000   0.791667   0.791667         0.0012
      695           0.375000   0.791667   0.875000         0.0012
      696           0.375000   0.791667   0.958333         0.0012
      697           0.375000   0.875000   0.041667         0.0012
      698           0.375000   0.875000   0.125000         0.0012
      699           0.375000   0.875000   0.208333         0.0012
      700           0.375000   0.875000   0.291667         0.0012
      701           0.375000   0.875000   0.375000         0.0012
      702           0.375000   0.875000   0.458333         0.0012
      703           0.375000   0.875000   0.541667         0.0012
      704           0.375000   0.875000   0.625000         0.0012
      705           0.375000   0.875000   0.708333         0.0012
      706           0.375000   0.875000   0.791667         0.0012
      707           0.375000   0.875000   0.875000         0.0012
      708           0.375000   0.875000   0.958333         0.0012
      709           0.375000   0.958333   0.041667         0.0012
      710           0.375000   0.958333   0.125000         0.0012
      711           0.375000   0.958333   0.208333         0.0012
      712           0.375000   0.958333   0.291667         0.0012
      713           0.375000   0.958333   0.375000         0.0012
      714           0.375000   0.958333   0.458333         0.0012
      715           0.375000   0.958333   0.541667         0.0012
      716           0.375000   0.958333   0.625000         0.0012
      717           0.375000   0.958333   0.708333         0.0012
      718           0.375000   0.958333   0.791667         0.0012
      719           0.375000   0.958333   0.875000         0.0012
      720           0.375000   0.958333   0.958333         0.0012
      721           0.458333   0.041667   0.041667         0.0012
      722           0.458333   0.041667   0.125000         0.0012
      723           0.458333   0.041667   0.208333         0.0012
      724           0.458333   0.041667   0.291667         0.0012
      725           0.458333   0.041667   0.375000         0.0012
      726           0.458333   0.041667   0.458333         0.0012
      727           0.458333   0.041667   0.541667         0.0012
      728           0.458333   0.041667   0.625000         0.0012
      729           0.458333   0.041667   0.708333         0.0012
      730           0.458333   0.041667   0.791667         0.0012
      731           0.458333   0.041667   0.875000         0.0012
      732           0.458333   0.041667   0.958333         0.0012
      733           0.458333   0.125000   0.041667         0.0012
      734           0.458333   0.125000   0.125000         0.0012
      735           0.458333   0.125000   0.208333         0.0012
      736           0.458333   0.125000   0.291667         0.0012
      737           0.458333   0.125000   0.375000         0.0012
      738           0.458333   0.125000   0.458333         0.0012
      739           0.458333   0.125000   0.541667         0.0012
      740           0.458333   0.125000   0.625000         0.0012
      741           0.458333   0.125000   0.708333         0.0012
      742           0.458333   0.125000   0.791667         0.0012
      743           0.458333   0.125000   0.875000         0.0012
      744           0.458333   0.125000   0.958333         0.0012
      745           0.458333   0.208333   0.041667         0.0012
      746           0.458333   0.208333   0.125000         0.0012
      747           0.458333   0.208333   0.208333         0.0012
      748           0.458333   0.208333   0.291667         0.0012
      749           0.458333   0.208333   0.375000         0.0012
      750           0.458333   0.208333   0.458333         0.0012
      751           0.458333   0.208333   0.541667         0.0012
      752           0.458333   0.208333   0.625000         0.0012
      753           0.458333   0.208333   0.708333         0.0012
      754           0.458333   0.208333   0.791667         0.0012
      755           0.458333   0.208333   0.875000         0.0012
      756           0.458333   0.208333   0.958333         0.0012
      757           0.458333   0.291667   0.041667         0.0012
      758           0.458333   0.291667   0.125000         0.0012
      759           0.458333   0.291667   0.208333         0.0012
      760           0.458333   0.291667   0.291667         0.0012
      761           0.458333   0.291667   0.375000         0.0012
      762           0.458333   0.291667   0.458333         0.0012
      763           0.458333   0.291667   0.541667         0.0012
      764           0.458333   0.291667   0.625000         0.0012
      765           0.458333   0.291667   0.708333         0.0012
      766           0.458333   0.291667   0.791667         0.0012
      767           0.458333   0.291667   0.875000         0.0012
      768           0.458333   0.291667   0.958333         0.0012
      769           0.458333   0.375000   0.041667         0.0012
      770           0.458333   0.375000   0.125000         0.0012
      771           0.458333   0.375000   0.208333         0.0012
      772           0.458333   0.375000   0.291667         0.0012
      773           0.458333   0.375000   0.375000         0.0012
      774           0.458333   0.375000   0.458333         0.0012
      775           0.458333   0.375000   0.541667         0.0012
      776           0.458333   0.375000   0.625000         0.0012
      777           0.458333   0.375000   0.708333         0.0012
      778           0.458333   0.375000   0.791667         0.0012
      779           0.458333   0.375000   0.875000         0.0012
      780           0.458333   0.375000   0.958333         0.0012
      781           0.458333   0.458333   0.041667         0.0012
      782           0.458333   0.458333   0.125000         0.0012
      783           0.458333   0.458333   0.208333         0.0012
      784           0.458333   0.458333   0.291667         0.0012
      785           0.458333   0.458333   0.375000         0.0012
      786           0.458333   0.458333   0.458333         0.0012
      787           0.458333   0.458333   0.541667         0.0012
      788           0.458333   0.458333   0.625000         0.0012
      789           0.458333   0.458333   0.708333         0.0012
      790           0.458333   0.458333   0.791667         0.0012
      791           0.458333   0.458333   0.875000         0.0012
      792           0.458333   0.458333   0.958333         0.0012
      793           0.458333   0.541667   0.041667         0.0012
      794           0.458333   0.541667   0.125000         0.0012
      795           0.458333   0.541667   0.208333         0.0012
      796           0.458333   0.541667   0.291667         0.0012
      797           0.458333   0.541667   0.375000         0.0012
      798           0.458333   0.541667   0.458333         0.0012
      799           0.458333   0.541667   0.541667         0.0012
      800           0.458333   0.541667   0.625000         0.0012
      801           0.458333   0.541667   0.708333         0.0012
      802           0.458333   0.541667   0.791667         0.0012
      803           0.458333   0.541667   0.875000         0.0012
      804           0.458333   0.541667   0.958333         0.0012
      805           0.458333   0.625000   0.041667         0.0012
      806           0.458333   0.625000   0.125000         0.0012
      807           0.458333   0.625000   0.208333         0.0012
      808           0.458333   0.625000   0.291667         0.0012
      809           0.458333   0.625000   0.375000         0.0012
      810           0.458333   0.625000   0.458333         0.0012
      811           0.458333   0.625000   0.541667         0.0012
      812           0.458333   0.625000   0.625000         0.0012
      813           0.458333   0.625000   0.708333         0.0012
      814           0.458333   0.625000   0.791667         0.0012
      815           0.458333   0.625000   0.875000         0.0012
      816           0.458333   0.625000   0.958333         0.0012
      817           0.458333   0.708333   0.041667         0.0012
      818           0.458333   0.708333   0.125000         0.0012
      819           0.458333   0.708333   0.208333         0.0012
      820           0.458333   0.708333   0.291667         0.0012
      821           0.458333   0.708333   0.375000         0.0012
      822           0.458333   0.708333   0.458333         0.0012
      823           0.458333   0.708333   0.541667         0.0012
      824           0.458333   0.708333   0.625000         0.0012
      825           0.458333   0.708333   0.708333         0.0012
      826           0.458333   0.708333   0.791667         0.0012
      827           0.458333   0.708333   0.875000         0.0012
      828           0.458333   0.708333   0.958333         0.0012
      829           0.458333   0.791667   0.041667         0.0012
      830           0.458333   0.791667   0.125000         0.0012
      831           0.458333   0.791667   0.208333         0.0012
      832           0.458333   0.791667   0.291667         0.0012
      833           0.458333   0.791667   0.375000         0.0012
      834           0.458333   0.791667   0.458333         0.0012
      835           0.458333   0.791667   0.541667         0.0012
      836           0.458333   0.791667   0.625000         0.0012
      837           0.458333   0.791667   0.708333         0.0012
      838           0.458333   0.791667   0.791667         0.0012
      839           0.458333   0.791667   0.875000         0.0012
      840           0.458333   0.791667   0.958333         0.0012
      841           0.458333   0.875000   0.041667         0.0012
      842           0.458333   0.875000   0.125000         0.0012
      843           0.458333   0.875000   0.208333         0.0012
      844           0.458333   0.875000   0.291667         0.0012
      845           0.458333   0.875000   0.375000         0.0012
      846           0.458333   0.875000   0.458333         0.0012
      847           0.458333   0.875000   0.541667         0.0012
      848           0.458333   0.875000   0.625000         0.0012
      849           0.458333   0.875000   0.708333         0.0012
      850           0.458333   0.875000   0.791667         0.0012
      851           0.458333   0.875000   0.875000         0.0012
      852           0.458333   0.875000   0.958333         0.0012
      853           0.458333   0.958333   0.041667         0.0012
      854           0.458333   0.958333   0.125000         0.0012
      855           0.458333   0.958333   0.208333         0.0012
      856           0.458333   0.958333   0.291667         0.0012
      857           0.458333   0.958333   0.375000         0.0012
      858           0.458333   0.958333   0.458333         0.0012
      859           0.458333   0.958333   0.541667         0.0012
      860           0.458333   0.958333   0.625000         0.0012
      861           0.458333   0.958333   0.708333         0.0012
      862           0.458333   0.958333   0.791667         0.0012
      863           0.458333   0.958333   0.875000         0.0012
      864           0.458333   0.958333   0.958333         0.0012
--------------------------------------------------------------------------------


********************************************************************************
*  General input information                                                   *
********************************************************************************

  Species output for all configurations : 

--------------------------------------------------------------------------------
  Species    Type    Atomic    Atomic    Charge       Radii (Angs)     Library
                     Number     Mass       (e)     Cova   Ionic  VDW   Symbol
--------------------------------------------------------------------------------
    Mg       Core       12      24.31   2.000000   1.100  0.000  1.640          
    O        Core        8      16.00  -2.000000   0.730  0.000  1.360          
--------------------------------------------------------------------------------


  Lattice summation method               =    Ewald          (3-D)
                                         =    Parry          (2-D)
                                         =    Saunders et al (1-D)
  Accuracy factor for lattice sums       =   12.000


  Time limit = Infinity

  Maximum range for interatomic potentials =    100000.000000 Angstroms

  General interatomic potentials :

--------------------------------------------------------------------------------
Atom  Types   Potential         A         B         C         D     Cutoffs(Ang)
  1     2                                                            Min    Max 
--------------------------------------------------------------------------------
O    c Mg   c Buckingham    0.130E+04 0.300      0.00      0.00     0.000 12.000
O    c O    c Buckingham    0.228E+05 0.149      27.9      0.00     0.000 12.000
--------------------------------------------------------------------------------

********************************************************************************
*  Output for configuration   1                                                *
********************************************************************************


  Components of energy : 

--------------------------------------------------------------------------------
  Interatomic potentials     =           6.72051513 eV
  Monopole - monopole (real) =          -5.11585306 eV
  Monopole - monopole (recip)=         -42.67997969 eV
  Monopole - monopole (total)=         -47.79583275 eV
--------------------------------------------------------------------------------
  Total lattice energy       =         -41.07531762 eV
--------------------------------------------------------------------------------
  Total lattice energy       =           -3963.1403 kJ/(mole unit cells)
--------------------------------------------------------------------------------

  Born effective charge tensors : 

-------------------------------------------------------------------------------
  Atom             x           y             z
-------------------------------------------------------------------------------
   1 Mg    x       2.0000      0.0000      0.0000
           y       0.0000      2.0000      0.0000
           z       0.0000      0.0000      2.0000
-------------------------------------------------------------------------------
   2 O     x      -2.0000      0.0000      0.0000
           y       0.0000     -2.0000      0.0000
           z       0.0000      0.0000     -2.0000
-------------------------------------------------------------------------------




  Elastic Constant Matrix: (Units=GPa)

-------------------------------------------------------------------------------
  Indices      1         2         3         4         5         6    
-------------------------------------------------------------------------------
       1    430.3381  143.4444  124.0198   27.4705   -0.0000   -0.0000
       2    143.4444  430.3381  124.0198  -27.4705   -0.0000    0.0000
       3    124.0198  124.0198  449.7626    0.0000    0.0000    0.0000
       4     27.4705  -27.4705    0.0000  124.0223   -0.0000   -0.0000
       5     -0.0000   -0.0000    0.0000   -0.0000  124.0223   27.4705
       6     -0.0000    0.0000    0.0000   -0.0000   27.4705  143.4468
-------------------------------------------------------------------------------


  Elastic Compliance Matrix: (Units=1/GPa)

-------------------------------------------------------------------------------
  Indices      1         2         3         4         5         6    
-------------------------------------------------------------------------------
       1    0.002809 -0.000831 -0.000546 -0.000806  0.000000  0.000000
       2   -0.000831  0.002809 -0.000546  0.000806  0.000000 -0.000000
       3   -0.000546 -0.000546  0.002524 -0.000000 -0.000000 -0.000000
       4   -0.000806  0.000806 -0.000000  0.008420 -0.000000  0.000000
       5    0.000000  0.000000 -0.000000 -0.000000  0.008420 -0.001613
       6    0.000000 -0.000000 -0.000000  0.000000 -0.001613  0.007280
-------------------------------------------------------------------------------

  Mechanical properties :

-------------------------------------------------------------------------------
  Convention :                    Reuss         Voigt         Hill
-------------------------------------------------------------------------------
  Bulk  Modulus (GPa)     =     232.60075     232.60075     232.60075
  Shear Modulus (GPa)     =     133.19011     139.56191     136.37601
-------------------------------------------------------------------------------
  Velocity S-wave (km/s)  =       6.09683       6.24096       6.16932
  Velocity P-wave (km/s)  =      10.69940      10.80963      10.75466
-------------------------------------------------------------------------------
  Compressibility (1/GPa) =    0.00429921
-------------------------------------------------------------------------------
  Stress axis :                     x             y             z
-------------------------------------------------------------------------------
  Youngs Moduli (GPa)     =     355.95460     355.95460     396.15028
-------------------------------------------------------------------------------
  Poissons Ratio (x)      =                     0.29568       0.21614
  Poissons Ratio (y)      =       0.29568                     0.21614
  Poissons Ratio (z)      =       0.19421       0.19421
-------------------------------------------------------------------------------


  Piezoelectric Strain Matrix: (Units=C/m**2)

-------------------------------------------------------------------------------
  Indices      1         2         3         4         5         6    
-------------------------------------------------------------------------------
       x    -0.00000  -0.00000   0.00000  -0.00000  -0.00000  -0.00000
       y    -0.00000   0.00000   0.00000   0.00000  -0.00000  -0.00000
       z    -0.00000   0.00000  -0.00000   0.00000   0.00000  -0.00000
-------------------------------------------------------------------------------


  Piezoelectric Stress Matrix: (Units=10**-11 C/N)

-------------------------------------------------------------------------------
  Indices      1         2         3         4         5         6    
-------------------------------------------------------------------------------
       x    -0.00000  -0.00000   0.00000  -0.00000  -0.00000  -0.00000
       y    -0.00000   0.00000   0.00000   0.00000  -0.00000  -0.00000
       z    -0.00000   0.00000  -0.00000   0.00000   0.00000  -0.00000
-------------------------------------------------------------------------------


  Static dielectric constant tensor : 

-------------------------------------------------------------------------------
              x         y         z
-------------------------------------------------------------------------------
       x     7.83310   0.00000   0.00000
       y     0.00000   7.83310   0.00000
       z     0.00000   0.00000   7.83310
--------------------------------------------------------------------------------

  Static refractive indices : 

-------------------------------------------------------------------------------
    1 =    2.79877      2 =    2.79877      3 =    2.79877
-------------------------------------------------------------------------------


  Phonon Calculation : 

  Number of k points for this configuration =      864

--------------------------------------------------------------------------------
  K point      1 =   0.041667  0.041667  0.041667  Weight =    0.001
--------------------------------------------------------------------------------

  Frequencies (cm-1) [NB: Negative implies an imaginary mode]:

   33.55   33.55   64.02  399.35  399.35 1115.99


--------------------------------------------------------------------------------
  K point      2 =   0.041667  0.041667  0.125000  Weight =    0.001
--------------------------------------------------------------------------------

  Frequencies (cm-1) [NB: Negative implies an imaginary mode]:

   78.51   94.50  157.00  394.60  402.45 1100.23


--------------------------------------------------------------------------------
  K point      3 =   0.041667  0.041667  0.208333  Weight =    0.001
--------------------------------------------------------------------------------

  Frequencies (cm-1) [NB: Negative implies an imaginary mode]:

  138.98  153.94  278.48  387.25  400.26 1063.52


--------------------------------------------------------------------------------
  K point      4 =   0.041667  0.041667  0.291667  Weight =    0.001
--------------------------------------------------------------------------------

  Frequencies (cm-1) [NB: Negative implies an imaginary mode]:

  195.53  207.02  377.59  392.12  402.54 1007.37


--------------------------------------------------------------------------------
  K point      5 =   0.041667  0.041667  0.375000  Weight =    0.001
--------------------------------------------------------------------------------

  Frequencies (cm-1) [NB: Negative implies an imaginary mode]:

  243.73  250.78  366.00  381.69  520.47  935.12


--------------------------------------------------------------------------------
  K point      6 =   0.041667  0.041667  0.458333  Weight =    0.001
--------------------------------------------------------------------------------

  Frequencies (cm-1) [NB: Negative implies an imaginary mode]:

  278.76  282.25  354.87  366.99  626.93  855.34


--------------------------------------------------------------------------------
  K point      7 =   0.041667  0.041667  0.541667  Weight =    0.001
--------------------------------------------------------------------------------

  Frequencies (cm-1) [NB: Negative implies an imaginary mode]:

  288.64  293.11  354.43  356.98  671.54  817.42


--------------------------------------------------------------------------------
  K point      8 =   0.041667  0.041667  0.625000  Weight =    0.001
--------------------------------------------------------------------------------

  Frequencies (cm-1) [NB: Negative implies an imaginary mode]:

  268.80  273.27  362.29  368.18  593.97  881.65


--------------------------------------------------------------------------------
  K point      9 =   0.041667  0.041667  0.708333  Weight =    0.001
--------------------------------------------------------------------------------

  Frequencies (cm-1) [NB: Negative implies an imaginary mode]:

  232.39  233.31  373.67  382.78  481.59  960.68


--------------------------------------------------------------------------------
  K point     10 =   0.041667  0.041667  0.791667  Weight =    0.001
--------------------------------------------------------------------------------

  Frequencies (cm-1) [NB: Negative implies an imaginary mode]:

  182.08  185.19  360.27  384.87  393.32 1027.97


--------------------------------------------------------------------------------
  K point     11 =   0.041667  0.041667  0.875000  Weight =    0.001
--------------------------------------------------------------------------------

  Frequencies (cm-1) [NB: Negative implies an imaginary mode]:

  124.03  129.88  237.25  393.33  399.28 1077.70


--------------------------------------------------------------------------------
  K point     12 =   0.041667  0.041667  0.958333  Weight =    0.001
--------------------------------------------------------------------------------

  Frequencies (cm-1) [NB: Negative implies an imaginary mode]:

   66.81   70.76  116.57  399.64  401.10 1107.09


--------------------------------------------------------------------------------
  K point     13 =   0.041667  0.125000  0.041667  Weight =    0.001
--------------------------------------------------------------------------------

  Frequencies (cm-1) [NB: Negative implies an imaginary mode]:

   78.51   94.50  157.00  394.60  402.45 1100.23


--------------------------------------------------------------------------------
  K point     14 =   0.041667  0.125000  0.125000  Weight =    0.001
--------------------------------------------------------------------------------

  Frequencies (cm-1) [NB: Negative implies an imaginary mode]:

  109.73  112.01  175.24  402.89  404.48 1088.74


--------------------------------------------------------------------------------
  K point     15 =   0.041667  0.125000  0.208333  Weight =    0.001
--------------------------------------------------------------------------------

  Frequencies (cm-1) [NB: Negative implies an imaginary mode]:

  149.61  168.54  257.89  397.41  410.88 1057.20


--------------------------------------------------------------------------------
  K point     16 =   0.041667  0.125000  0.291667  Weight =    0.001
--------------------------------------------------------------------------------

  Frequencies (cm-1) [NB: Negative implies an imaginary mode]:

  199.08  221.72  362.13  388.81  410.95 1007.41


--------------------------------------------------------------------------------
  K point     17 =   0.041667  0.125000  0.375000  Weight =    0.001
--------------------------------------------------------------------------------

  Frequencies (cm-1) [NB: Negative implies an imaginary mode]:

  244.28  267.60  378.79  403.28  475.15  940.62


--------------------------------------------------------------------------------
  K point     18 =   0.041667  0.125000  0.458333  Weight =    0.001
--------------------------------------------------------------------------------

  Frequencies (cm-1) [NB: Negative implies an imaginary mode]:

  277.75  302.89  370.89  392.85  582.08  862.02


--------------------------------------------------------------------------------
  K point     19 =   0.041667  0.125000  0.541667  Weight =    0.001
--------------------------------------------------------------------------------

  Frequencies (cm-1) [NB: Negative implies an imaginary mode]:

  294.72  319.55  363.41  387.62  658.51  797.16


--------------------------------------------------------------------------------
  K point     20 =   0.041667  0.125000  0.625000  Weight =    0.001
--------------------------------------------------------------------------------

  Frequencies (cm-1) [NB: Negative implies an imaginary mode]:

  286.39  313.01  358.93  397.03  614.66  835.04


--------------------------------------------------------------------------------
  K point     21 =   0.041667  0.125000  0.708333  Weight =    0.001
--------------------------------------------------------------------------------

  Frequencies (cm-1) [NB: Negative implies an imaginary mode]:

  253.87  288.06  364.42  408.27  511.90  914.88


--------------------------------------------------------------------------------
  K point     22 =   0.041667  0.125000  0.791667  Weight =    0.001
--------------------------------------------------------------------------------

  Frequencies (cm-1) [NB: Negative implies an imaginary mode]:

  207.86  249.07  373.66  397.17  418.32  987.38


--------------------------------------------------------------------------------
  K point     23 =   0.041667  0.125000  0.875000  Weight =    0.001
--------------------------------------------------------------------------------

  Frequencies (cm-1) [NB: Negative implies an imaginary mode]:

  156.38  196.25  293.53  384.07  414.82 1044.45


--------------------------------------------------------------------------------
  K point     24 =   0.041667  0.125000  0.958333  Weight =    0.001
--------------------------------------------------------------------------------

  Frequencies (cm-1) [NB: Negative implies an imaginary mode]:

  110.55  130.06  206.85  393.88  405.91 1083.27


--------------------------------------------------------------------------------
  K point     25 =   0.041667  0.208333  0.041667  Weight =    0.001
--------------------------------------------------------------------------------

  Frequencies (cm-1) [NB: Negative implies an imaginary mode]:

  138.98  153.94  278.48  387.25  400.26 1063.52


--------------------------------------------------------------------------------
  K point     26 =   0.041667  0.208333  0.125000  Weight =    0.001
--------------------------------------------------------------------------------

  Frequencies (cm-1) [NB: Negative implies an imaginary mode]:

  149.61  168.54  257.89  397.41  410.88 1057.20


--------------------------------------------------------------------------------
  K point     27 =   0.041667  0.208333  0.208333  Weight =    0.001
--------------------------------------------------------------------------------

  Frequencies (cm-1) [NB: Negative implies an imaginary mode]:

  191.27  192.22  287.55  414.25  415.25 1028.66


--------------------------------------------------------------------------------
  K point     28 =   0.041667  0.208333  0.291667  Weight =    0.001
--------------------------------------------------------------------------------

  Frequencies (cm-1) [NB: Negative implies an imaginary mode]:

  225.89  243.25  351.44  411.58  424.30  984.75


--------------------------------------------------------------------------------
  K point     29 =   0.041667  0.208333  0.375000  Weight =    0.001
--------------------------------------------------------------------------------

  Frequencies (cm-1) [NB: Negative implies an imaginary mode]:

  262.25  296.40  405.71  421.72  437.94  925.12


--------------------------------------------------------------------------------
  K point     30 =   0.041667  0.208333  0.458333  Weight =    0.001
--------------------------------------------------------------------------------

  Frequencies (cm-1) [NB: Negative implies an imaginary mode]:

  289.47  339.35  400.64  426.29  525.31  851.12


--------------------------------------------------------------------------------
  K point     31 =   0.041667  0.208333  0.541667  Weight =    0.001
--------------------------------------------------------------------------------

  Frequencies (cm-1) [NB: Negative implies an imaginary mode]:

  304.69  364.40  388.04  434.38  613.32  773.07


--------------------------------------------------------------------------------
  K point     32 =   0.041667  0.208333  0.625000  Weight =    0.001
--------------------------------------------------------------------------------

  Frequencies (cm-1) [NB: Negative implies an imaginary mode]:

  304.80  369.08  375.93  444.41  618.46  767.03


--------------------------------------------------------------------------------
  K point     33 =   0.041667  0.208333  0.708333  Weight =    0.001
--------------------------------------------------------------------------------

[...]
--------------------------------------------------------------------------------

  Frequencies (cm-1) [NB: Negative implies an imaginary mode]:

  320.68  392.69  405.90  461.07  536.13  785.14


--------------------------------------------------------------------------------
  K point    828 =   0.458333  0.708333  0.958333  Weight =    0.001
--------------------------------------------------------------------------------

  Frequencies (cm-1) [NB: Negative implies an imaginary mode]:

  319.87  403.76  415.89  468.11  551.36  758.48


--------------------------------------------------------------------------------
  K point    829 =   0.458333  0.791667  0.041667  Weight =    0.001
--------------------------------------------------------------------------------

  Frequencies (cm-1) [NB: Negative implies an imaginary mode]:

  313.89  391.66  397.31  461.53  617.55  730.10


--------------------------------------------------------------------------------
  K point    830 =   0.458333  0.791667  0.125000  Weight =    0.001
--------------------------------------------------------------------------------

  Frequencies (cm-1) [NB: Negative implies an imaginary mode]:

  340.69  414.29  428.98  477.59  610.64  680.40


--------------------------------------------------------------------------------
  K point    831 =   0.458333  0.791667  0.208333  Weight =    0.001
--------------------------------------------------------------------------------

  Frequencies (cm-1) [NB: Negative implies an imaginary mode]:

  371.21  444.00  450.48  471.45  577.94  663.55


--------------------------------------------------------------------------------
  K point    832 =   0.458333  0.791667  0.291667  Weight =    0.001
--------------------------------------------------------------------------------

  Frequencies (cm-1) [NB: Negative implies an imaginary mode]:

  379.45  436.40  466.33  470.29  541.54  683.77


--------------------------------------------------------------------------------
  K point    833 =   0.458333  0.791667  0.375000  Weight =    0.001
--------------------------------------------------------------------------------

  Frequencies (cm-1) [NB: Negative implies an imaginary mode]:

  349.35  435.51  444.85  475.84  535.47  715.09


--------------------------------------------------------------------------------
  K point    834 =   0.458333  0.791667  0.458333  Weight =    0.001
--------------------------------------------------------------------------------

  Frequencies (cm-1) [NB: Negative implies an imaginary mode]:

  328.29  423.62  428.54  478.03  528.08  746.22


--------------------------------------------------------------------------------
  K point    835 =   0.458333  0.791667  0.541667  Weight =    0.001
--------------------------------------------------------------------------------

  Frequencies (cm-1) [NB: Negative implies an imaginary mode]:

  331.96  403.27  428.89  468.43  516.15  770.71


--------------------------------------------------------------------------------
  K point    836 =   0.458333  0.791667  0.625000  Weight =    0.001
--------------------------------------------------------------------------------

  Frequencies (cm-1) [NB: Negative implies an imaginary mode]:

  325.48  407.96  410.56  470.68  504.93  787.87


--------------------------------------------------------------------------------
  K point    837 =   0.458333  0.791667  0.708333  Weight =    0.001
--------------------------------------------------------------------------------

  Frequencies (cm-1) [NB: Negative implies an imaginary mode]:

  304.44  377.58  415.47  473.29  517.38  799.91


--------------------------------------------------------------------------------
  K point    838 =   0.458333  0.791667  0.791667  Weight =    0.001
--------------------------------------------------------------------------------

  Frequencies (cm-1) [NB: Negative implies an imaginary mode]:

  295.00  363.08  389.09  458.53  557.34  805.51


--------------------------------------------------------------------------------
  K point    839 =   0.458333  0.791667  0.875000  Weight =    0.001
--------------------------------------------------------------------------------

  Frequencies (cm-1) [NB: Negative implies an imaginary mode]:

  301.59  358.77  374.73  436.41  593.14  798.33


--------------------------------------------------------------------------------
  K point    840 =   0.458333  0.791667  0.958333  Weight =    0.001
--------------------------------------------------------------------------------

  Frequencies (cm-1) [NB: Negative implies an imaginary mode]:

  304.69  364.40  388.04  434.38  613.32  773.07


--------------------------------------------------------------------------------
  K point    841 =   0.458333  0.875000  0.041667  Weight =    0.001
--------------------------------------------------------------------------------

  Frequencies (cm-1) [NB: Negative implies an imaginary mode]:

  300.60  343.83  368.14  414.94  647.32  777.28


--------------------------------------------------------------------------------
  K point    842 =   0.458333  0.875000  0.125000  Weight =    0.001
--------------------------------------------------------------------------------

  Frequencies (cm-1) [NB: Negative implies an imaginary mode]:

  317.31  379.29  392.38  451.26  606.47  753.67


--------------------------------------------------------------------------------
  K point    843 =   0.458333  0.875000  0.208333  Weight =    0.001
--------------------------------------------------------------------------------

  Frequencies (cm-1) [NB: Negative implies an imaginary mode]:

  339.36  414.23  422.90  471.15  549.54  739.40


--------------------------------------------------------------------------------
  K point    844 =   0.458333  0.875000  0.291667  Weight =    0.001
--------------------------------------------------------------------------------

  Frequencies (cm-1) [NB: Negative implies an imaginary mode]:

  360.00  411.46  453.73  475.80  499.21  744.62


--------------------------------------------------------------------------------
  K point    845 =   0.458333  0.875000  0.375000  Weight =    0.001
--------------------------------------------------------------------------------

  Frequencies (cm-1) [NB: Negative implies an imaginary mode]:

  356.60  392.24  457.99  481.05  483.32  760.41


--------------------------------------------------------------------------------
  K point    846 =   0.458333  0.875000  0.458333  Weight =    0.001
--------------------------------------------------------------------------------

  Frequencies (cm-1) [NB: Negative implies an imaginary mode]:

  339.76  391.08  447.01  483.12  485.63  772.41


--------------------------------------------------------------------------------
  K point    847 =   0.458333  0.875000  0.541667  Weight =    0.001
--------------------------------------------------------------------------------

  Frequencies (cm-1) [NB: Negative implies an imaginary mode]:

  349.69  385.84  453.02  474.74  480.50  776.11


--------------------------------------------------------------------------------
  K point    848 =   0.458333  0.875000  0.625000  Weight =    0.001
--------------------------------------------------------------------------------

  Frequencies (cm-1) [NB: Negative implies an imaginary mode]:

  343.74  400.35  438.57  470.78  489.86  777.27


--------------------------------------------------------------------------------
  K point    849 =   0.458333  0.875000  0.708333  Weight =    0.001
--------------------------------------------------------------------------------

  Frequencies (cm-1) [NB: Negative implies an imaginary mode]:

  320.68  392.69  405.90  461.07  536.13  785.14


--------------------------------------------------------------------------------
  K point    850 =   0.458333  0.875000  0.791667  Weight =    0.001
--------------------------------------------------------------------------------

  Frequencies (cm-1) [NB: Negative implies an imaginary mode]:

  301.59  358.77  374.73  436.41  593.14  798.33


--------------------------------------------------------------------------------
  K point    851 =   0.458333  0.875000  0.875000  Weight =    0.001
--------------------------------------------------------------------------------

  Frequencies (cm-1) [NB: Negative implies an imaginary mode]:

  293.80  328.03  358.25  403.86  638.17  804.89


--------------------------------------------------------------------------------
  K point    852 =   0.458333  0.875000  0.958333  Weight =    0.001
--------------------------------------------------------------------------------

  Frequencies (cm-1) [NB: Negative implies an imaginary mode]:

  294.72  319.55  363.41  387.62  658.51  797.16


--------------------------------------------------------------------------------
  K point    853 =   0.458333  0.958333  0.041667  Weight =    0.001
--------------------------------------------------------------------------------

  Frequencies (cm-1) [NB: Negative implies an imaginary mode]:

  287.41  299.08  356.85  371.74  650.03  825.43


--------------------------------------------------------------------------------
  K point    854 =   0.458333  0.958333  0.125000  Weight =    0.001
--------------------------------------------------------------------------------

  Frequencies (cm-1) [NB: Negative implies an imaginary mode]:

  292.52  333.56  380.81  408.72  601.82  818.21


--------------------------------------------------------------------------------
  K point    855 =   0.458333  0.958333  0.208333  Weight =    0.001
--------------------------------------------------------------------------------

  Frequencies (cm-1) [NB: Negative implies an imaginary mode]:

  306.75  372.88  409.55  447.16  540.43  803.73


--------------------------------------------------------------------------------
  K point    856 =   0.458333  0.958333  0.291667  Weight =    0.001
--------------------------------------------------------------------------------

  Frequencies (cm-1) [NB: Negative implies an imaginary mode]:

  325.25  387.41  434.79  466.07  490.32  796.45


--------------------------------------------------------------------------------
  K point    857 =   0.458333  0.958333  0.375000  Weight =    0.001
--------------------------------------------------------------------------------

  Frequencies (cm-1) [NB: Negative implies an imaginary mode]:

  341.00  361.02  452.35  463.85  480.85  798.45


--------------------------------------------------------------------------------
  K point    858 =   0.458333  0.958333  0.458333  Weight =    0.001
--------------------------------------------------------------------------------

  Frequencies (cm-1) [NB: Negative implies an imaginary mode]:

  343.63  350.15  455.61  459.69  488.75  797.27


--------------------------------------------------------------------------------
  K point    859 =   0.458333  0.958333  0.541667  Weight =    0.001
--------------------------------------------------------------------------------

  Frequencies (cm-1) [NB: Negative implies an imaginary mode]:

  346.95  367.33  455.22  467.78  486.78  784.70


--------------------------------------------------------------------------------
  K point    860 =   0.458333  0.958333  0.625000  Weight =    0.001
--------------------------------------------------------------------------------

  Frequencies (cm-1) [NB: Negative implies an imaginary mode]:

  335.94  406.39  439.91  477.18  499.32  765.82


--------------------------------------------------------------------------------
  K point    861 =   0.458333  0.958333  0.708333  Weight =    0.001
--------------------------------------------------------------------------------

  Frequencies (cm-1) [NB: Negative implies an imaginary mode]:

  319.87  403.76  415.89  468.11  551.36  758.48


--------------------------------------------------------------------------------
  K point    862 =   0.458333  0.958333  0.791667  Weight =    0.001
--------------------------------------------------------------------------------

  Frequencies (cm-1) [NB: Negative implies an imaginary mode]:

  304.69  364.40  388.04  434.38  613.32  773.07


--------------------------------------------------------------------------------
  K point    863 =   0.458333  0.958333  0.875000  Weight =    0.001
--------------------------------------------------------------------------------

  Frequencies (cm-1) [NB: Negative implies an imaginary mode]:

  294.72  319.55  363.41  387.62  658.51  797.16


--------------------------------------------------------------------------------
  K point    864 =   0.458333  0.958333  0.958333  Weight =    0.001
--------------------------------------------------------------------------------

  Frequencies (cm-1) [NB: Negative implies an imaginary mode]:

  288.64  293.11  354.43  356.98  671.54  817.42


--------------------------------------------------------------------------------
  Phonon properties (per mole of unit cells): Temperature =      0.000 K
--------------------------------------------------------------------------------
  Zero point energy            =        0.174330 eV
--------------------------------------------------------------------------------

  Phonon density of states : 

--------------------------------------------------------------------------------
 Frequency (cm-1) Density of States                                             
--------------------------------------------------------------------------------
    0.00000 |                                                              0.000
   17.43728 |                                                              0.000
   34.87456 |                                                              0.000
   52.31183 |                                                              0.001
   69.74911 |                                                              0.001
   87.18639 |                                                              0.001
  104.62367 |**                                                            0.003
  122.06094 |**                                                            0.003
  139.49822 |***                                                           0.004
  156.93550 |****                                                          0.005
  174.37278 |*****                                                         0.007
  191.81006 |********                                                      0.010
  209.24733 |*****                                                         0.007
  226.68461 |************                                                  0.015
  244.12189 |************                                                  0.016
  261.55917 |*****************                                             0.022
  278.99645 |**************************                                    0.033
  296.43372 |*****************************                                 0.037
  313.87100 |*****************************                                 0.037
  331.30828 |******************************                                0.039
  348.74556 |*************************************                         0.047
  366.18283 |***********************************************               0.060
  383.62011 |******************************************************        0.068
  401.05739 |***********************************************************   0.075
  418.49467 |****************************************************          0.065
  435.93195 |******************************************************        0.068
  453.36922 |********************************************                  0.056
  470.80650 |******************************************                    0.054
  488.24378 |**********                                                    0.013
  505.68106 |*******                                                       0.010
  523.11834 |********                                                      0.010
  540.55561 |*******                                                       0.010
  557.99289 |********                                                      0.010
  575.43017 |*********                                                     0.012
  592.86745 |********                                                      0.010
  610.30472 |***********                                                   0.014
  627.74200 |*****                                                         0.007
  645.17928 |***                                                           0.005
  662.61656 |******                                                        0.008
  680.05384 |****                                                          0.006
  697.49111 |******                                                        0.008
  714.92839 |*****                                                         0.007
  732.36567 |*******                                                       0.010
  749.80295 |*********                                                     0.012
  767.24023 |******                                                        0.009
  784.67750 |**********                                                    0.013
  802.11478 |********                                                      0.011
  819.55206 |*******                                                       0.009
  836.98934 |******                                                        0.008
  854.42661 |*****                                                         0.007
  871.86389 |******                                                        0.009
  889.30117 |****                                                          0.006
  906.73845 |***                                                           0.004
  924.17573 |*****                                                         0.006
  941.61300 |****                                                          0.006
  959.05028 |**                                                            0.003
  976.48756 |****                                                          0.006
  993.92484 |*                                                             0.002
 1011.36212 |****                                                          0.005
 1028.79939 |*                                                             0.002
 1046.23667 |**                                                            0.003
 1063.67395 |                                                              0.001
 1081.11123 |*                                                             0.002
 1098.54850 |*                                                             0.001
--------------------------------------------------------------------------------




  Phonon density of states written as mgo_ph_dos_12.dens            



  Time to end of properties =       0.6250 seconds


  Peak dynamic memory used =       0.58 MB 


  Timing analysis for GULP :

--------------------------------------------------------------------------------
  Task / Subroutine                                          Time (Seconds)
--------------------------------------------------------------------------------
  Calculation of reciprocal space energy and derivatives          0.1563
  Calculation of real space energy and derivatives                0.4219
  Calculation of phonons                                          0.6094
  Calculation of scattering                                       0.0000
--------------------------------------------------------------------------------
  Total CPU time                                                  0.6250
--------------------------------------------------------------------------------


  Job Finished at 14:10.25 21st November   2022                               

