********************************************************************************
*                       GENERAL UTILITY LATTICE PROGRAM                        *
*                                 Julian Gale                                  *
*                      Nanochemistry Research Institute                        *
*                           Department of Chemistry                            *
*                    Curtin University, Western Australia                      *
********************************************************************************
* Version = 4.3.5 * Last modified = 16th December 2015                         *
********************************************************************************
*  single       - perform a single point run                                   *
*  conp         - constant pressure calculation                                *
*  phonon       - calculate phonons for final geometry                         *
********************************************************************************
* ASE calculation                                                              *
********************************************************************************


  Job Started  at 14:10.24 21st November   2022                               

  Number of CPUs =     1


  Total number of configurations input =   1

********************************************************************************
*  Input for Configuration =   1                                               *
********************************************************************************

  Formula = MgO                                                         

  Number of irreducible atoms/shells =       2


  Total number atoms/shells =       2

  Dimensionality = 3               :  Bulk   



  Cartesian lattice vectors (Angstroms) :

        2.978334    0.000000    0.000000
        1.489167    2.579313    0.000000
        1.489167    0.859771    2.431800

  Cell parameters (Angstroms/Degrees):

  a =       2.9783    alpha =  60.0000
  b =       2.9783    beta  =  60.0000
  c =       2.9783    gamma =  60.0000

  Initial cell volume =          18.681219 Angs**3

  Shrinking factors =      1     1     1

  Temperature of configuration =  0.000     K 

  Pressure of configuration =         0.000 GPa 

  Fractional coordinates of asymmetric unit :

--------------------------------------------------------------------------------
   No.  Atomic       x           y          z         Charge      Occupancy
        Label      (Frac)      (Frac)     (Frac)        (e)         (Frac)  
--------------------------------------------------------------------------------
      1 Mg    c    0.000000    0.000000    0.000000     2.00000    1.000000    
      2 O     c    0.500000    0.500000    0.500000    -2.00000    1.000000    
--------------------------------------------------------------------------------


  Brillouin zone sampling points :

--------------------------------------------------------------------------------
  Point number          x          y          z            Weight
--------------------------------------------------------------------------------
        1           0.500000   0.500000   0.500000         1.0000
--------------------------------------------------------------------------------


********************************************************************************
*  General input information                                                   *
********************************************************************************

  Species output for all configurations : 

--------------------------------------------------------------------------------
  Species    Type    Atomic    Atomic    Charge       Radii (Angs)     Library
                     Number     Mass       (e)     Cova   Ionic  VDW   Symbol
--------------------------------------------------------------------------------
    Mg       Core       12      24.31   2.000000   1.100  0.000  1.640          
    O        Core        8      16.00  -2.000000   0.730  0.000  1.360          
--------------------------------------------------------------------------------


  Lattice summation method               =    Ewald          (3-D)
                                         =    Parry          (2-D)
                                         =    Saunders et al (1-D)
  Accuracy factor for lattice sums       =   12.000


  Time limit = Infinity

  Maximum range for interatomic potentials =    100000.000000 Angstroms

  General interatomic potentials :

--------------------------------------------------------------------------------
Atom  Types   Potential         A         B         C         D     Cutoffs(Ang)
  1     2                                                            Min    Max 
--------------------------------------------------------------------------------
O    c Mg   c Buckingham    0.130E+04 0.300      0.00      0.00     0.000 12.000
O    c O    c Buckingham    0.228E+05 0.149      27.9      0.00     0.000 12.000
--------------------------------------------------------------------------------

********************************************************************************
*  Output for configuration   1                                                *
********************************************************************************


  Components of energy : 

--------------------------------------------------------------------------------
  Interatomic potentials     =           6.72051513 eV
  Monopole - monopole (real) =          -5.11585306 eV
  Monopole - monopole (recip)=         -42.67997969 eV
  Monopole - monopole (total)=         -47.79583275 eV
--------------------------------------------------------------------------------
  Total lattice energy       =         -41.07531762 eV
--------------------------------------------------------------------------------
  Total lattice energy       =           -3963.1403 kJ/(mole unit cells)
--------------------------------------------------------------------------------

  Born effective charge tensors : 

-------------------------------------------------------------------------------
  Atom             x           y             z
-------------------------------------------------------------------------------
   1 Mg    x       2.0000      0.0000      0.0000
           y       0.0000      2.0000      0.0000
           z       0.0000      0.0000      2.0000
-------------------------------------------------------------------------------
   2 O     x      -2.0000      0.0000      0.0000
           y       0.0000     -2.0000      0.0000
           z       0.0000      0.0000     -2.0000
-------------------------------------------------------------------------------




  Elastic Constant Matrix: (Units=GPa)

-------------------------------------------------------------------------------
  Indices      1         2         3         4         5         6    
-------------------------------------------------------------------------------
       1    430.3381  143.4444  124.0198   27.4705   -0.0000   -0.0000
       2    143.4444  430.3381  124.0198  -27.4705   -0.0000    0.0000
       3    124.0198  124.0198  449.7626    0.0000    0.0000    0.0000
       4     27.4705  -27.4705    0.0000  124.0223   -0.0000   -0.0000
       5     -0.0000   -0.0000    0.0000   -0.0000  124.0223   27.4705
       6     -0.0000    0.0000    0.0000   -0.0000   27.4705  143.4468
-------------------------------------------------------------------------------


  Elastic Compliance Matrix: (Units=1/GPa)

-------------------------------------------------------------------------------
  Indices      1         2         3         4         5         6    
-------------------------------------------------------------------------------
       1    0.002809 -0.000831 -0.000546 -0.000806  0.000000  0.000000
       2   -0.000831  0.002809 -0.000546  0.000806  0.000000 -0.000000
       3   -0.000546 -0.000546  0.002524 -0.000000 -0.000000 -0.000000
       4   -0.000806  0.000806 -0.000000  0.008420 -0.000000  0.000000
       5    0.000000  0.000000 -0.000000 -0.000000  0.008420 -0.001613
       6    0.000000 -0.000000 -0.000000  0.000000 -0.001613  0.007280
-------------------------------------------------------------------------------

  Mechanical properties :

-------------------------------------------------------------------------------
  Convention :                    Reuss         Voigt         Hill
-------------------------------------------------------------------------------
  Bulk  Modulus (GPa)     =     232.60075     232.60075     232.60075
  Shear Modulus (GPa)     =     133.19011     139.56191     136.37601
-------------------------------------------------------------------------------
  Velocity S-wave (km/s)  =       6.09683       6.24096       6.16932
  Velocity P-wave (km/s)  =      10.69940      10.80963      10.75466
-------------------------------------------------------------------------------
  Compressibility (1/GPa) =    0.00429921
-------------------------------------------------------------------------------
  Stress axis :                     x             y             z
-------------------------------------------------------------------------------
  Youngs Moduli (GPa)     =     355.95460     355.95460     396.15028
-------------------------------------------------------------------------------
  Poissons Ratio (x)      =                     0.29568       0.21614
  Poissons Ratio (y)      =       0.29568                     0.21614
  Poissons Ratio (z)      =       0.19421       0.19421
-------------------------------------------------------------------------------


  Piezoelectric Strain Matrix: (Units=C/m**2)

-------------------------------------------------------------------------------
  Indices      1         2         3         4         5         6    
-------------------------------------------------------------------------------
       x    -0.00000  -0.00000   0.00000  -0.00000  -0.00000  -0.00000
       y    -0.00000   0.00000   0.00000   0.00000  -0.00000  -0.00000
       z    -0.00000   0.00000  -0.00000   0.00000   0.00000  -0.00000
-------------------------------------------------------------------------------


  Piezoelectric Stress Matrix: (Units=10**-11 C/N)

-------------------------------------------------------------------------------
  Indices      1         2         3         4         5         6    
-------------------------------------------------------------------------------
       x    -0.00000  -0.00000   0.00000  -0.00000  -0.00000  -0.00000
       y    -0.00000   0.00000   0.00000   0.00000  -0.00000  -0.00000
       z    -0.00000   0.00000  -0.00000   0.00000   0.00000  -0.00000
-------------------------------------------------------------------------------


  Static dielectric constant tensor : 

-------------------------------------------------------------------------------
              x         y         z
-------------------------------------------------------------------------------
       x     7.83310   0.00000   0.00000
       y     0.00000   7.83310   0.00000
       z     0.00000   0.00000   7.83310
--------------------------------------------------------------------------------

  Static refractive indices : 

-------------------------------------------------------------------------------
    1 =    2.79877      2 =    2.79877      3 =    2.79877
-------------------------------------------------------------------------------


  Phonon Calculation : 

  Number of k points for this configuration =        1

--------------------------------------------------------------------------------
  K point      1 =   0.500000  0.500000  0.500000  Weight =    1.000
--------------------------------------------------------------------------------

  Frequencies (cm-1) [NB: Negative implies an imaginary mode]:

  288.46  288.46  351.73  351.73  676.21  818.80


--------------------------------------------------------------------------------
  Phonon properties (per mole of unit cells): Temperature =      0.000 K
--------------------------------------------------------------------------------
  Zero point energy            =        0.172053 eV
--------------------------------------------------------------------------------

  Phonon density of states : 

--------------------------------------------------------------------------------
 Frequency (cm-1) Density of States                                             
--------------------------------------------------------------------------------
    0.00000 |                                                              0.000
   12.79370 |                                                              0.000
   25.58740 |                                                              0.000
   38.38111 |                                                              0.000
   51.17481 |                                                              0.000
   63.96851 |                                                              0.000
   76.76221 |                                                              0.000
   89.55592 |                                                              0.000
  102.34962 |                                                              0.000
  115.14332 |                                                              0.000
  127.93702 |                                                              0.000
  140.73072 |                                                              0.000
  153.52443 |                                                              0.000
  166.31813 |                                                              0.000
  179.11183 |                                                              0.000
  191.90553 |                                                              0.000
  204.69924 |                                                              0.000
  217.49294 |                                                              0.000
  230.28664 |                                                              0.000
  243.08034 |                                                              0.000
  255.87404 |                                                              0.000
  268.66775 |                                                              0.000
  281.46145 |************************************************************  0.333
  294.25515 |                                                              0.000
  307.04885 |                                                              0.000
  319.84256 |                                                              0.000
  332.63626 |                                                              0.000
  345.42996 |************************************************************  0.333
  358.22366 |                                                              0.000
  371.01736 |                                                              0.000
  383.81107 |                                                              0.000
  396.60477 |                                                              0.000
  409.39847 |                                                              0.000
  422.19217 |                                                              0.000
  434.98588 |                                                              0.000
  447.77958 |                                                              0.000
  460.57328 |                                                              0.000
  473.36698 |                                                              0.000
  486.16069 |                                                              0.000
  498.95439 |                                                              0.000
  511.74809 |                                                              0.000
  524.54179 |                                                              0.000
  537.33549 |                                                              0.000
  550.12920 |                                                              0.000
  562.92290 |                                                              0.000
  575.71660 |                                                              0.000
  588.51030 |                                                              0.000
  601.30401 |                                                              0.000
  614.09771 |                                                              0.000
  626.89141 |                                                              0.000
  639.68511 |                                                              0.000
  652.47881 |                                                              0.000
  665.27252 |******************************                                0.167
  678.06622 |                                                              0.000
  690.85992 |                                                              0.000
  703.65362 |                                                              0.000
  716.44733 |                                                              0.000
  729.24103 |                                                              0.000
  742.03473 |                                                              0.000
  754.82843 |                                                              0.000
  767.62213 |                                                              0.000
  780.41584 |                                                              0.000
  793.20954 |                                                              0.000
  806.00324 |******************************                                0.167
--------------------------------------------------------------------------------




  Phonon density of states written as mgo_ph_dos_1.dens             



  Time to end of properties =       0.0000 seconds


  Peak dynamic memory used =       0.47 MB 


  Timing analysis for GULP :

--------------------------------------------------------------------------------
  Task / Subroutine                                          Time (Seconds)
--------------------------------------------------------------------------------
--------------------------------------------------------------------------------
  Total CPU time                                                  0.0000
--------------------------------------------------------------------------------


  Job Finished at 14:10.24 21st November   2022                               

