********************************************************************************
*                       GENERAL UTILITY LATTICE PROGRAM                        *
*                                 Julian Gale                                  *
*                      Nanochemistry Research Institute                        *
*                           Department of Chemistry                            *
*                    Curtin University, Western Australia                      *
********************************************************************************
* Version = 4.3.5 * Last modified = 16th December 2015                         *
********************************************************************************
*  single       - perform a single point run                                   *
*  conp         - constant pressure calculation                                *
*  phonon       - calculate phonons for final geometry                         *
********************************************************************************
* ASE calculation                                                              *
********************************************************************************


  Job Started  at 14:10.25 21st November   2022                               

  Number of CPUs =     1


  Total number of configurations input =   1

********************************************************************************
*  Input for Configuration =   1                                               *
********************************************************************************

  Formula = MgO                                                         

  Number of irreducible atoms/shells =       2


  Total number atoms/shells =       2

  Dimensionality = 3               :  Bulk   



  Cartesian lattice vectors (Angstroms) :

        2.978334    0.000000    0.000000
        1.489167    2.579313    0.000000
        1.489167    0.859771    2.431800

  Cell parameters (Angstroms/Degrees):

  a =       2.9783    alpha =  60.0000
  b =       2.9783    beta  =  60.0000
  c =       2.9783    gamma =  60.0000

  Initial cell volume =          18.681219 Angs**3

  Shrinking factors =      8     8     8

  Temperature of configuration =  0.000     K 

  Pressure of configuration =         0.000 GPa 

  Fractional coordinates of asymmetric unit :

--------------------------------------------------------------------------------
   No.  Atomic       x           y          z         Charge      Occupancy
        Label      (Frac)      (Frac)     (Frac)        (e)         (Frac)  
--------------------------------------------------------------------------------
      1 Mg    c    0.000000    0.000000    0.000000     2.00000    1.000000    
      2 O     c    0.500000    0.500000    0.500000    -2.00000    1.000000    
--------------------------------------------------------------------------------


  Brillouin zone sampling points :

--------------------------------------------------------------------------------
  Point number          x          y          z            Weight
--------------------------------------------------------------------------------
        1           0.062500   0.062500   0.062500         0.0039
        2           0.062500   0.062500   0.187500         0.0039
        3           0.062500   0.062500   0.312500         0.0039
        4           0.062500   0.062500   0.437500         0.0039
        5           0.062500   0.062500   0.562500         0.0039
        6           0.062500   0.062500   0.687500         0.0039
        7           0.062500   0.062500   0.812500         0.0039
        8           0.062500   0.062500   0.937500         0.0039
        9           0.062500   0.187500   0.062500         0.0039
       10           0.062500   0.187500   0.187500         0.0039
       11           0.062500   0.187500   0.312500         0.0039
       12           0.062500   0.187500   0.437500         0.0039
       13           0.062500   0.187500   0.562500         0.0039
       14           0.062500   0.187500   0.687500         0.0039
       15           0.062500   0.187500   0.812500         0.0039
       16           0.062500   0.187500   0.937500         0.0039
       17           0.062500   0.312500   0.062500         0.0039
       18           0.062500   0.312500   0.187500         0.0039
       19           0.062500   0.312500   0.312500         0.0039
       20           0.062500   0.312500   0.437500         0.0039
       21           0.062500   0.312500   0.562500         0.0039
       22           0.062500   0.312500   0.687500         0.0039
       23           0.062500   0.312500   0.812500         0.0039
       24           0.062500   0.312500   0.937500         0.0039
       25           0.062500   0.437500   0.062500         0.0039
       26           0.062500   0.437500   0.187500         0.0039
       27           0.062500   0.437500   0.312500         0.0039
       28           0.062500   0.437500   0.437500         0.0039
       29           0.062500   0.437500   0.562500         0.0039
       30           0.062500   0.437500   0.687500         0.0039
       31           0.062500   0.437500   0.812500         0.0039
       32           0.062500   0.437500   0.937500         0.0039
       33           0.062500   0.562500   0.062500         0.0039
       34           0.062500   0.562500   0.187500         0.0039
       35           0.062500   0.562500   0.312500         0.0039
       36           0.062500   0.562500   0.437500         0.0039
       37           0.062500   0.562500   0.562500         0.0039
       38           0.062500   0.562500   0.687500         0.0039
       39           0.062500   0.562500   0.812500         0.0039
       40           0.062500   0.562500   0.937500         0.0039
       41           0.062500   0.687500   0.062500         0.0039
       42           0.062500   0.687500   0.187500         0.0039
       43           0.062500   0.687500   0.312500         0.0039
       44           0.062500   0.687500   0.437500         0.0039
       45           0.062500   0.687500   0.562500         0.0039
       46           0.062500   0.687500   0.687500         0.0039
       47           0.062500   0.687500   0.812500         0.0039
       48           0.062500   0.687500   0.937500         0.0039
       49           0.062500   0.812500   0.062500         0.0039
       50           0.062500   0.812500   0.187500         0.0039
       51           0.062500   0.812500   0.312500         0.0039
       52           0.062500   0.812500   0.437500         0.0039
       53           0.062500   0.812500   0.562500         0.0039
       54           0.062500   0.812500   0.687500         0.0039
       55           0.062500   0.812500   0.812500         0.0039
       56           0.062500   0.812500   0.937500         0.0039
       57           0.062500   0.937500   0.062500         0.0039
       58           0.062500   0.937500   0.187500         0.0039
       59           0.062500   0.937500   0.312500         0.0039
       60           0.062500   0.937500   0.437500         0.0039
       61           0.062500   0.937500   0.562500         0.0039
       62           0.062500   0.937500   0.687500         0.0039
       63           0.062500   0.937500   0.812500         0.0039
       64           0.062500   0.937500   0.937500         0.0039
       65           0.187500   0.062500   0.062500         0.0039
       66           0.187500   0.062500   0.187500         0.0039
       67           0.187500   0.062500   0.312500         0.0039
       68           0.187500   0.062500   0.437500         0.0039
       69           0.187500   0.062500   0.562500         0.0039
       70           0.187500   0.062500   0.687500         0.0039
       71           0.187500   0.062500   0.812500         0.0039
       72           0.187500   0.062500   0.937500         0.0039
       73           0.187500   0.187500   0.062500         0.0039
       74           0.187500   0.187500   0.187500         0.0039
       75           0.187500   0.187500   0.312500         0.0039
       76           0.187500   0.187500   0.437500         0.0039
       77           0.187500   0.187500   0.562500         0.0039
       78           0.187500   0.187500   0.687500         0.0039
       79           0.187500   0.187500   0.812500         0.0039
       80           0.187500   0.187500   0.937500         0.0039
       81           0.187500   0.312500   0.062500         0.0039
       82           0.187500   0.312500   0.187500         0.0039
       83           0.187500   0.312500   0.312500         0.0039
       84           0.187500   0.312500   0.437500         0.0039
       85           0.187500   0.312500   0.562500         0.0039
       86           0.187500   0.312500   0.687500         0.0039
       87           0.187500   0.312500   0.812500         0.0039
       88           0.187500   0.312500   0.937500         0.0039
       89           0.187500   0.437500   0.062500         0.0039
       90           0.187500   0.437500   0.187500         0.0039
       91           0.187500   0.437500   0.312500         0.0039
       92           0.187500   0.437500   0.437500         0.0039
       93           0.187500   0.437500   0.562500         0.0039
       94           0.187500   0.437500   0.687500         0.0039
       95           0.187500   0.437500   0.812500         0.0039
       96           0.187500   0.437500   0.937500         0.0039
       97           0.187500   0.562500   0.062500         0.0039
       98           0.187500   0.562500   0.187500         0.0039
       99           0.187500   0.562500   0.312500         0.0039
      100           0.187500   0.562500   0.437500         0.0039
      101           0.187500   0.562500   0.562500         0.0039
      102           0.187500   0.562500   0.687500         0.0039
      103           0.187500   0.562500   0.812500         0.0039
      104           0.187500   0.562500   0.937500         0.0039
      105           0.187500   0.687500   0.062500         0.0039
      106           0.187500   0.687500   0.187500         0.0039
      107           0.187500   0.687500   0.312500         0.0039
      108           0.187500   0.687500   0.437500         0.0039
      109           0.187500   0.687500   0.562500         0.0039
      110           0.187500   0.687500   0.687500         0.0039
      111           0.187500   0.687500   0.812500         0.0039
      112           0.187500   0.687500   0.937500         0.0039
      113           0.187500   0.812500   0.062500         0.0039
      114           0.187500   0.812500   0.187500         0.0039
      115           0.187500   0.812500   0.312500         0.0039
      116           0.187500   0.812500   0.437500         0.0039
      117           0.187500   0.812500   0.562500         0.0039
      118           0.187500   0.812500   0.687500         0.0039
      119           0.187500   0.812500   0.812500         0.0039
      120           0.187500   0.812500   0.937500         0.0039
      121           0.187500   0.937500   0.062500         0.0039
      122           0.187500   0.937500   0.187500         0.0039
      123           0.187500   0.937500   0.312500         0.0039
      124           0.187500   0.937500   0.437500         0.0039
      125           0.187500   0.937500   0.562500         0.0039
      126           0.187500   0.937500   0.687500         0.0039
      127           0.187500   0.937500   0.812500         0.0039
      128           0.187500   0.937500   0.937500         0.0039
      129           0.312500   0.062500   0.062500         0.0039
      130           0.312500   0.062500   0.187500         0.0039
      131           0.312500   0.062500   0.312500         0.0039
      132           0.312500   0.062500   0.437500         0.0039
      133           0.312500   0.062500   0.562500         0.0039
      134           0.312500   0.062500   0.687500         0.0039
      135           0.312500   0.062500   0.812500         0.0039
      136           0.312500   0.062500   0.937500         0.0039
      137           0.312500   0.187500   0.062500         0.0039
      138           0.312500   0.187500   0.187500         0.0039
      139           0.312500   0.187500   0.312500         0.0039
      140           0.312500   0.187500   0.437500         0.0039
      141           0.312500   0.187500   0.562500         0.0039
      142           0.312500   0.187500   0.687500         0.0039
      143           0.312500   0.187500   0.812500         0.0039
      144           0.312500   0.187500   0.937500         0.0039
      145           0.312500   0.312500   0.062500         0.0039
      146           0.312500   0.312500   0.187500         0.0039
      147           0.312500   0.312500   0.312500         0.0039
      148           0.312500   0.312500   0.437500         0.0039
      149           0.312500   0.312500   0.562500         0.0039
      150           0.312500   0.312500   0.687500         0.0039
      151           0.312500   0.312500   0.812500         0.0039
      152           0.312500   0.312500   0.937500         0.0039
      153           0.312500   0.437500   0.062500         0.0039
      154           0.312500   0.437500   0.187500         0.0039
      155           0.312500   0.437500   0.312500         0.0039
      156           0.312500   0.437500   0.437500         0.0039
      157           0.312500   0.437500   0.562500         0.0039
      158           0.312500   0.437500   0.687500         0.0039
      159           0.312500   0.437500   0.812500         0.0039
      160           0.312500   0.437500   0.937500         0.0039
      161           0.312500   0.562500   0.062500         0.0039
      162           0.312500   0.562500   0.187500         0.0039
      163           0.312500   0.562500   0.312500         0.0039
      164           0.312500   0.562500   0.437500         0.0039
      165           0.312500   0.562500   0.562500         0.0039
      166           0.312500   0.562500   0.687500         0.0039
      167           0.312500   0.562500   0.812500         0.0039
      168           0.312500   0.562500   0.937500         0.0039
      169           0.312500   0.687500   0.062500         0.0039
      170           0.312500   0.687500   0.187500         0.0039
      171           0.312500   0.687500   0.312500         0.0039
      172           0.312500   0.687500   0.437500         0.0039
      173           0.312500   0.687500   0.562500         0.0039
      174           0.312500   0.687500   0.687500         0.0039
      175           0.312500   0.687500   0.812500         0.0039
      176           0.312500   0.687500   0.937500         0.0039
      177           0.312500   0.812500   0.062500         0.0039
      178           0.312500   0.812500   0.187500         0.0039
      179           0.312500   0.812500   0.312500         0.0039
      180           0.312500   0.812500   0.437500         0.0039
      181           0.312500   0.812500   0.562500         0.0039
      182           0.312500   0.812500   0.687500         0.0039
      183           0.312500   0.812500   0.812500         0.0039
      184           0.312500   0.812500   0.937500         0.0039
      185           0.312500   0.937500   0.062500         0.0039
      186           0.312500   0.937500   0.187500         0.0039
      187           0.312500   0.937500   0.312500         0.0039
      188           0.312500   0.937500   0.437500         0.0039
      189           0.312500   0.937500   0.562500         0.0039
      190           0.312500   0.937500   0.687500         0.0039
      191           0.312500   0.937500   0.812500         0.0039
      192           0.312500   0.937500   0.937500         0.0039
      193           0.437500   0.062500   0.062500         0.0039
      194           0.437500   0.062500   0.187500         0.0039
      195           0.437500   0.062500   0.312500         0.0039
      196           0.437500   0.062500   0.437500         0.0039
      197           0.437500   0.062500   0.562500         0.0039
      198           0.437500   0.062500   0.687500         0.0039
      199           0.437500   0.062500   0.812500         0.0039
      200           0.437500   0.062500   0.937500         0.0039
      201           0.437500   0.187500   0.062500         0.0039
      202           0.437500   0.187500   0.187500         0.0039
      203           0.437500   0.187500   0.312500         0.0039
      204           0.437500   0.187500   0.437500         0.0039
      205           0.437500   0.187500   0.562500         0.0039
      206           0.437500   0.187500   0.687500         0.0039
      207           0.437500   0.187500   0.812500         0.0039
      208           0.437500   0.187500   0.937500         0.0039
      209           0.437500   0.312500   0.062500         0.0039
      210           0.437500   0.312500   0.187500         0.0039
      211           0.437500   0.312500   0.312500         0.0039
      212           0.437500   0.312500   0.437500         0.0039
      213           0.437500   0.312500   0.562500         0.0039
      214           0.437500   0.312500   0.687500         0.0039
      215           0.437500   0.312500   0.812500         0.0039
      216           0.437500   0.312500   0.937500         0.0039
      217           0.437500   0.437500   0.062500         0.0039
      218           0.437500   0.437500   0.187500         0.0039
      219           0.437500   0.437500   0.312500         0.0039
      220           0.437500   0.437500   0.437500         0.0039
      221           0.437500   0.437500   0.562500         0.0039
      222           0.437500   0.437500   0.687500         0.0039
      223           0.437500   0.437500   0.812500         0.0039
      224           0.437500   0.437500   0.937500         0.0039
      225           0.437500   0.562500   0.062500         0.0039
      226           0.437500   0.562500   0.187500         0.0039
      227           0.437500   0.562500   0.312500         0.0039
      228           0.437500   0.562500   0.437500         0.0039
      229           0.437500   0.562500   0.562500         0.0039
      230           0.437500   0.562500   0.687500         0.0039
      231           0.437500   0.562500   0.812500         0.0039
      232           0.437500   0.562500   0.937500         0.0039
      233           0.437500   0.687500   0.062500         0.0039
      234           0.437500   0.687500   0.187500         0.0039
      235           0.437500   0.687500   0.312500         0.0039
      236           0.437500   0.687500   0.437500         0.0039
      237           0.437500   0.687500   0.562500         0.0039
      238           0.437500   0.687500   0.687500         0.0039
      239           0.437500   0.687500   0.812500         0.0039
      240           0.437500   0.687500   0.937500         0.0039
      241           0.437500   0.812500   0.062500         0.0039
      242           0.437500   0.812500   0.187500         0.0039
      243           0.437500   0.812500   0.312500         0.0039
      244           0.437500   0.812500   0.437500         0.0039
      245           0.437500   0.812500   0.562500         0.0039
      246           0.437500   0.812500   0.687500         0.0039
      247           0.437500   0.812500   0.812500         0.0039
      248           0.437500   0.812500   0.937500         0.0039
      249           0.437500   0.937500   0.062500         0.0039
      250           0.437500   0.937500   0.187500         0.0039
      251           0.437500   0.937500   0.312500         0.0039
      252           0.437500   0.937500   0.437500         0.0039
      253           0.437500   0.937500   0.562500         0.0039
      254           0.437500   0.937500   0.687500         0.0039
      255           0.437500   0.937500   0.812500         0.0039
      256           0.437500   0.937500   0.937500         0.0039
--------------------------------------------------------------------------------


********************************************************************************
*  General input information                                                   *
********************************************************************************

  Species output for all configurations : 

--------------------------------------------------------------------------------
  Species    Type    Atomic    Atomic    Charge       Radii (Angs)     Library
                     Number     Mass       (e)     Cova   Ionic  VDW   Symbol
--------------------------------------------------------------------------------
    Mg       Core       12      24.31   2.000000   1.100  0.000  1.640          
    O        Core        8      16.00  -2.000000   0.730  0.000  1.360          
--------------------------------------------------------------------------------


  Lattice summation method               =    Ewald          (3-D)
                                         =    Parry          (2-D)
                                         =    Saunders et al (1-D)
  Accuracy factor for lattice sums       =   12.000


  Time limit = Infinity

  Maximum range for interatomic potentials =    100000.000000 Angstroms

  General interatomic potentials :

--------------------------------------------------------------------------------
Atom  Types   Potential         A         B         C         D     Cutoffs(Ang)
  1     2                                                            Min    Max 
--------------------------------------------------------------------------------
O    c Mg   c Buckingham    0.130E+04 0.300      0.00      0.00     0.000 12.000
O    c O    c Buckingham    0.228E+05 0.149      27.9      0.00     0.000 12.000
--------------------------------------------------------------------------------

********************************************************************************
*  Output for configuration   1                                                *
********************************************************************************


  Components of energy : 

--------------------------------------------------------------------------------
  Interatomic potentials     =           6.72051513 eV
  Monopole - monopole (real) =          -5.11585306 eV
  Monopole - monopole (recip)=         -42.67997969 eV
  Monopole - monopole (total)=         -47.79583275 eV
--------------------------------------------------------------------------------
  Total lattice energy       =         -41.07531762 eV
--------------------------------------------------------------------------------
  Total lattice energy       =           -3963.1403 kJ/(mole unit cells)
--------------------------------------------------------------------------------

  Born effective charge tensors : 

-------------------------------------------------------------------------------
  Atom             x           y             z
-------------------------------------------------------------------------------
   1 Mg    x       2.0000      0.0000      0.0000
           y       0.0000      2.0000      0.0000
           z       0.0000      0.0000      2.0000
-------------------------------------------------------------------------------
   2 O     x      -2.0000      0.0000      0.0000
           y       0.0000     -2.0000      0.0000
           z       0.0000      0.0000     -2.0000
-------------------------------------------------------------------------------




  Elastic Constant Matrix: (Units=GPa)

-------------------------------------------------------------------------------
  Indices      1         2         3         4         5         6    
-------------------------------------------------------------------------------
       1    430.3381  143.4444  124.0198   27.4705   -0.0000   -0.0000
       2    143.4444  430.3381  124.0198  -27.4705   -0.0000    0.0000
       3    124.0198  124.0198  449.7626    0.0000    0.0000    0.0000
       4     27.4705  -27.4705    0.0000  124.0223   -0.0000   -0.0000
       5     -0.0000   -0.0000    0.0000   -0.0000  124.0223   27.4705
       6     -0.0000    0.0000    0.0000   -0.0000   27.4705  143.4468
-------------------------------------------------------------------------------


  Elastic Compliance Matrix: (Units=1/GPa)

-------------------------------------------------------------------------------
  Indices      1         2         3         4         5         6    
-------------------------------------------------------------------------------
       1    0.002809 -0.000831 -0.000546 -0.000806  0.000000  0.000000
       2   -0.000831  0.002809 -0.000546  0.000806  0.000000 -0.000000
       3   -0.000546 -0.000546  0.002524 -0.000000 -0.000000 -0.000000
       4   -0.000806  0.000806 -0.000000  0.008420 -0.000000  0.000000
       5    0.000000  0.000000 -0.000000 -0.000000  0.008420 -0.001613
       6    0.000000 -0.000000 -0.000000  0.000000 -0.001613  0.007280
-------------------------------------------------------------------------------

  Mechanical properties :

-------------------------------------------------------------------------------
  Convention :                    Reuss         Voigt         Hill
-------------------------------------------------------------------------------
  Bulk  Modulus (GPa)     =     232.60075     232.60075     232.60075
  Shear Modulus (GPa)     =     133.19011     139.56191     136.37601
-------------------------------------------------------------------------------
  Velocity S-wave (km/s)  =       6.09683       6.24096       6.16932
  Velocity P-wave (km/s)  =      10.69940      10.80963      10.75466
-------------------------------------------------------------------------------
  Compressibility (1/GPa) =    0.00429921
-------------------------------------------------------------------------------
  Stress axis :                     x             y             z
-------------------------------------------------------------------------------
  Youngs Moduli (GPa)     =     355.95460     355.95460     396.15028
-------------------------------------------------------------------------------
  Poissons Ratio (x)      =                     0.29568       0.21614
  Poissons Ratio (y)      =       0.29568                     0.21614
  Poissons Ratio (z)      =       0.19421       0.19421
-------------------------------------------------------------------------------


  Piezoelectric Strain Matrix: (Units=C/m**2)

-------------------------------------------------------------------------------
  Indices      1         2         3         4         5         6    
-------------------------------------------------------------------------------
       x    -0.00000  -0.00000   0.00000  -0.00000  -0.00000  -0.00000
       y    -0.00000   0.00000   0.00000   0.00000  -0.00000  -0.00000
       z    -0.00000   0.00000  -0.00000   0.00000   0.00000  -0.00000
-------------------------------------------------------------------------------


  Piezoelectric Stress Matrix: (Units=10**-11 C/N)

-------------------------------------------------------------------------------
  Indices      1         2         3         4         5         6    
-------------------------------------------------------------------------------
       x    -0.00000  -0.00000   0.00000  -0.00000  -0.00000  -0.00000
       y    -0.00000   0.00000   0.00000   0.00000  -0.00000  -0.00000
       z    -0.00000   0.00000  -0.00000   0.00000   0.00000  -0.00000
-------------------------------------------------------------------------------


  Static dielectric constant tensor : 

-------------------------------------------------------------------------------
              x         y         z
-------------------------------------------------------------------------------
       x     7.83310   0.00000   0.00000
       y     0.00000   7.83310   0.00000
       z     0.00000   0.00000   7.83310
--------------------------------------------------------------------------------

  Static refractive indices : 

-------------------------------------------------------------------------------
    1 =    2.79877      2 =    2.79877      3 =    2.79877
-------------------------------------------------------------------------------


  Phonon Calculation : 

  Number of k points for this configuration =      256

--------------------------------------------------------------------------------
  K point      1 =   0.062500  0.062500  0.062500  Weight =    0.004
--------------------------------------------------------------------------------

  Frequencies (cm-1) [NB: Negative implies an imaginary mode]:

   50.20   50.20   96.02  398.86  398.86 1112.48


--------------------------------------------------------------------------------
  K point      2 =   0.062500  0.062500  0.187500  Weight =    0.004
--------------------------------------------------------------------------------

  Frequencies (cm-1) [NB: Negative implies an imaginary mode]:

  117.10  142.09  232.35  388.63  405.77 1077.29


--------------------------------------------------------------------------------
  K point      3 =   0.062500  0.062500  0.312500  Weight =    0.004
--------------------------------------------------------------------------------

  Frequencies (cm-1) [NB: Negative implies an imaginary mode]:

  201.59  221.78  374.07  397.59  412.71  997.54


--------------------------------------------------------------------------------
  K point      4 =   0.062500  0.062500  0.437500  Weight =    0.004
--------------------------------------------------------------------------------

  Frequencies (cm-1) [NB: Negative implies an imaginary mode]:

  268.12  278.66  357.69  381.27  582.88  883.95


--------------------------------------------------------------------------------
  K point      5 =   0.062500  0.062500  0.562500  Weight =    0.004
--------------------------------------------------------------------------------

  Frequencies (cm-1) [NB: Negative implies an imaginary mode]:

  288.96  298.69  357.65  363.28  665.82  815.69


--------------------------------------------------------------------------------
  K point      6 =   0.062500  0.062500  0.687500  Weight =    0.004
--------------------------------------------------------------------------------

  Frequencies (cm-1) [NB: Negative implies an imaginary mode]:

  251.78  258.41  371.57  380.97  527.99  924.32


--------------------------------------------------------------------------------
  K point      7 =   0.062500  0.062500  0.812500  Weight =    0.004
--------------------------------------------------------------------------------

  Frequencies (cm-1) [NB: Negative implies an imaginary mode]:

  184.34  186.45  350.51  387.50  397.40 1028.26


--------------------------------------------------------------------------------
  K point      8 =   0.062500  0.062500  0.937500  Weight =    0.004
--------------------------------------------------------------------------------

  Frequencies (cm-1) [NB: Negative implies an imaginary mode]:

  100.44  105.06  173.26  399.64  402.67 1092.68


--------------------------------------------------------------------------------
  K point      9 =   0.062500  0.187500  0.062500  Weight =    0.004
--------------------------------------------------------------------------------

  Frequencies (cm-1) [NB: Negative implies an imaginary mode]:

  117.10  142.09  232.35  388.63  405.77 1077.29


--------------------------------------------------------------------------------
  K point     10 =   0.062500  0.187500  0.187500  Weight =    0.004
--------------------------------------------------------------------------------

  Frequencies (cm-1) [NB: Negative implies an imaginary mode]:

  163.81  164.15  255.48  407.03  409.78 1052.99


--------------------------------------------------------------------------------
  K point     11 =   0.062500  0.187500  0.312500  Weight =    0.004
--------------------------------------------------------------------------------

  Frequencies (cm-1) [NB: Negative implies an imaginary mode]:

  218.30  251.13  363.01  397.67  424.07  986.08


--------------------------------------------------------------------------------
  K point     12 =   0.062500  0.187500  0.437500  Weight =    0.004
--------------------------------------------------------------------------------

  Frequencies (cm-1) [NB: Negative implies an imaginary mode]:

  275.23  318.81  387.26  421.19  508.67  883.27


--------------------------------------------------------------------------------
  K point     13 =   0.062500  0.187500  0.562500  Weight =    0.004
--------------------------------------------------------------------------------

  Frequencies (cm-1) [NB: Negative implies an imaginary mode]:

  303.68  350.33  377.24  421.03  638.31  772.75


--------------------------------------------------------------------------------
  K point     14 =   0.062500  0.187500  0.687500  Weight =    0.004
--------------------------------------------------------------------------------

  Frequencies (cm-1) [NB: Negative implies an imaginary mode]:

  286.92  344.88  366.19  431.46  559.59  840.77


--------------------------------------------------------------------------------
  K point     15 =   0.062500  0.187500  0.812500  Weight =    0.004
--------------------------------------------------------------------------------

  Frequencies (cm-1) [NB: Negative implies an imaginary mode]:

  228.90  297.72  372.56  406.71  435.90  956.26


--------------------------------------------------------------------------------
  K point     16 =   0.062500  0.187500  0.937500  Weight =    0.004
--------------------------------------------------------------------------------

  Frequencies (cm-1) [NB: Negative implies an imaginary mode]:

  164.00  195.67  300.40  388.05  413.40 1040.29


--------------------------------------------------------------------------------
  K point     17 =   0.062500  0.312500  0.062500  Weight =    0.004
--------------------------------------------------------------------------------

  Frequencies (cm-1) [NB: Negative implies an imaginary mode]:

  201.59  221.78  374.07  397.59  412.71  997.54


--------------------------------------------------------------------------------
  K point     18 =   0.062500  0.312500  0.187500  Weight =    0.004
--------------------------------------------------------------------------------

  Frequencies (cm-1) [NB: Negative implies an imaginary mode]:

  218.30  251.13  363.01  397.67  424.07  986.08


--------------------------------------------------------------------------------
  K point     19 =   0.062500  0.312500  0.312500  Weight =    0.004
--------------------------------------------------------------------------------

  Frequencies (cm-1) [NB: Negative implies an imaginary mode]:

  266.58  274.39  393.19  429.90  430.84  936.02


--------------------------------------------------------------------------------
  K point     20 =   0.062500  0.312500  0.437500  Weight =    0.004
--------------------------------------------------------------------------------

  Frequencies (cm-1) [NB: Negative implies an imaginary mode]:

  307.85  344.29  430.07  447.25  456.83  856.54


--------------------------------------------------------------------------------
  K point     21 =   0.062500  0.312500  0.562500  Weight =    0.004
--------------------------------------------------------------------------------

  Frequencies (cm-1) [NB: Negative implies an imaginary mode]:

  326.69  412.07  419.05  472.11  553.50  744.87


--------------------------------------------------------------------------------
  K point     22 =   0.062500  0.312500  0.687500  Weight =    0.004
--------------------------------------------------------------------------------

  Frequencies (cm-1) [NB: Negative implies an imaginary mode]:

  320.05  389.48  438.28  484.25  588.80  713.60


--------------------------------------------------------------------------------
  K point     23 =   0.062500  0.312500  0.812500  Weight =    0.004
--------------------------------------------------------------------------------

  Frequencies (cm-1) [NB: Negative implies an imaginary mode]:

  286.00  367.81  389.79  459.16  498.86  844.37


--------------------------------------------------------------------------------
  K point     24 =   0.062500  0.312500  0.937500  Weight =    0.004
--------------------------------------------------------------------------------

  Frequencies (cm-1) [NB: Negative implies an imaginary mode]:

  237.66  267.67  373.13  407.41  466.32  947.50


--------------------------------------------------------------------------------
  K point     25 =   0.062500  0.437500  0.062500  Weight =    0.004
--------------------------------------------------------------------------------

  Frequencies (cm-1) [NB: Negative implies an imaginary mode]:

  268.12  278.66  357.69  381.27  582.88  883.95


--------------------------------------------------------------------------------
  K point     26 =   0.062500  0.437500  0.187500  Weight =    0.004
--------------------------------------------------------------------------------

  Frequencies (cm-1) [NB: Negative implies an imaginary mode]:

  275.23  318.81  387.26  421.19  508.67  883.27


--------------------------------------------------------------------------------
  K point     27 =   0.062500  0.437500  0.312500  Weight =    0.004
--------------------------------------------------------------------------------

  Frequencies (cm-1) [NB: Negative implies an imaginary mode]:

  307.85  344.29  430.07  447.25  456.83  856.54


--------------------------------------------------------------------------------
  K point     28 =   0.062500  0.437500  0.437500  Weight =    0.004
--------------------------------------------------------------------------------

  Frequencies (cm-1) [NB: Negative implies an imaginary mode]:

  329.36  342.46  448.94  455.78  471.96  823.96


--------------------------------------------------------------------------------
  K point     29 =   0.062500  0.437500  0.562500  Weight =    0.004
--------------------------------------------------------------------------------

  Frequencies (cm-1) [NB: Negative implies an imaginary mode]:

  349.07  390.17  452.85  480.44  483.99  768.09


--------------------------------------------------------------------------------
  K point     30 =   0.062500  0.437500  0.687500  Weight =    0.004
--------------------------------------------------------------------------------

  Frequencies (cm-1) [NB: Negative implies an imaginary mode]:

  337.19  425.32  450.07  476.52  571.62  695.39


--------------------------------------------------------------------------------
  K point     31 =   0.062500  0.437500  0.812500  Weight =    0.004
--------------------------------------------------------------------------------

  Frequencies (cm-1) [NB: Negative implies an imaginary mode]:

  314.68  383.84  396.64  461.00  621.97  731.06


--------------------------------------------------------------------------------
  K point     32 =   0.062500  0.437500  0.937500  Weight =    0.004
--------------------------------------------------------------------------------

  Frequencies (cm-1) [NB: Negative implies an imaginary mode]:

  287.66  312.13  362.69  391.86  622.29  829.97


--------------------------------------------------------------------------------
  K point     33 =   0.062500  0.562500  0.062500  Weight =    0.004
--------------------------------------------------------------------------------

  Frequencies (cm-1) [NB: Negative implies an imaginary mode]:

  288.96  298.69  357.65  363.28  665.82  815.69


--------------------------------------------------------------------------------
  K point     34 =   0.062500  0.562500  0.187500  Weight =    0.004
--------------------------------------------------------------------------------

  Frequencies (cm-1) [NB: Negative implies an imaginary mode]:

  303.68  350.33  377.24  421.03  638.31  772.75


--------------------------------------------------------------------------------
  K point     35 =   0.062500  0.562500  0.312500  Weight =    0.004
--------------------------------------------------------------------------------

  Frequencies (cm-1) [NB: Negative implies an imaginary mode]:

  326.69  412.07  419.05  472.11  553.50  744.87


--------------------------------------------------------------------------------
  K point     36 =   0.062500  0.562500  0.437500  Weight =    0.004
--------------------------------------------------------------------------------

  Frequencies (cm-1) [NB: Negative implies an imaginary mode]:

  349.07  390.17  452.85  480.44  483.99  768.09


--------------------------------------------------------------------------------
  K point     37 =   0.062500  0.562500  0.562500  Weight =    0.004
--------------------------------------------------------------------------------

  Frequencies (cm-1) [NB: Negative implies an imaginary mode]:

  342.12  356.40  453.89  462.89  487.10  795.39


--------------------------------------------------------------------------------
  K point     38 =   0.062500  0.562500  0.687500  Weight =    0.004
--------------------------------------------------------------------------------

  Frequencies (cm-1) [NB: Negative implies an imaginary mode]:

  335.25  374.29  444.85  466.67  476.02  801.05


--------------------------------------------------------------------------------
  K point     39 =   0.062500  0.562500  0.812500  Weight =    0.004
--------------------------------------------------------------------------------

  Frequencies (cm-1) [NB: Negative implies an imaginary mode]:

  305.75  367.97  406.23  444.63  536.25  812.54


--------------------------------------------------------------------------------
  K point     40 =   0.062500  0.562500  0.937500  Weight =    0.004
--------------------------------------------------------------------------------

  Frequencies (cm-1) [NB: Negative implies an imaginary mode]:

  287.66  312.13  362.69  391.86  622.29  829.97


--------------------------------------------------------------------------------
  K point     41 =   0.062500  0.687500  0.062500  Weight =    0.004
--------------------------------------------------------------------------------

  Frequencies (cm-1) [NB: Negative implies an imaginary mode]:

  251.78  258.41  371.57  380.97  527.99  924.32


--------------------------------------------------------------------------------
  K point     42 =   0.062500  0.687500  0.187500  Weight =    0.004
--------------------------------------------------------------------------------

  Frequencies (cm-1) [NB: Negative implies an imaginary mode]:

  286.92  344.88  366.19  431.46  559.59  840.77


--------------------------------------------------------------------------------
  K point     43 =   0.062500  0.687500  0.312500  Weight =    0.004
--------------------------------------------------------------------------------

  Frequencies (cm-1) [NB: Negative implies an imaginary mode]:

  320.05  389.48  438.28  484.25  588.80  713.60


--------------------------------------------------------------------------------
  K point     44 =   0.062500  0.687500  0.437500  Weight =    0.004
--------------------------------------------------------------------------------

  Frequencies (cm-1) [NB: Negative implies an imaginary mode]:

  337.19  425.32  450.07  476.52  571.62  695.39


--------------------------------------------------------------------------------
  K point     45 =   0.062500  0.687500  0.562500  Weight =    0.004
--------------------------------------------------------------------------------

  Frequencies (cm-1) [NB: Negative implies an imaginary mode]:

  335.25  374.29  444.85  466.67  476.02  801.05


--------------------------------------------------------------------------------
  K point     46 =   0.062500  0.687500  0.687500  Weight =    0.004
--------------------------------------------------------------------------------

  Frequencies (cm-1) [NB: Negative implies an imaginary mode]:

  303.92  314.81  440.31  440.35  444.55  874.31


--------------------------------------------------------------------------------
  K point     47 =   0.062500  0.687500  0.812500  Weight =    0.004
--------------------------------------------------------------------------------

  Frequencies (cm-1) [NB: Negative implies an imaginary mode]:

  267.99  302.17  410.26  416.65  437.58  921.87


--------------------------------------------------------------------------------
  K point     48 =   0.062500  0.687500  0.937500  Weight =    0.004
--------------------------------------------------------------------------------

  Frequencies (cm-1) [NB: Negative implies an imaginary mode]:

  237.66  267.67  373.13  407.41  466.32  947.50


--------------------------------------------------------------------------------
  K point     49 =   0.062500  0.812500  0.062500  Weight =    0.004
--------------------------------------------------------------------------------

  Frequencies (cm-1) [NB: Negative implies an imaginary mode]:

  184.34  186.45  350.51  387.50  397.40 1028.26


--------------------------------------------------------------------------------
  K point     50 =   0.062500  0.812500  0.187500  Weight =    0.004
--------------------------------------------------------------------------------

  Frequencies (cm-1) [NB: Negative implies an imaginary mode]:

  228.90  297.72  372.56  406.71  435.90  956.26


--------------------------------------------------------------------------------
  K point     51 =   0.062500  0.812500  0.312500  Weight =    0.004
--------------------------------------------------------------------------------

  Frequencies (cm-1) [NB: Negative implies an imaginary mode]:

  286.00  367.81  389.79  459.16  498.86  844.37


--------------------------------------------------------------------------------
  K point     52 =   0.062500  0.812500  0.437500  Weight =    0.004
--------------------------------------------------------------------------------

  Frequencies (cm-1) [NB: Negative implies an imaginary mode]:

  314.68  383.84  396.64  461.00  621.97  731.06


--------------------------------------------------------------------------------
  K point     53 =   0.062500  0.812500  0.562500  Weight =    0.004
--------------------------------------------------------------------------------

  Frequencies (cm-1) [NB: Negative implies an imaginary mode]:

  305.75  367.97  406.23  444.63  536.25  812.54


--------------------------------------------------------------------------------
  K point     54 =   0.062500  0.812500  0.687500  Weight =    0.004
--------------------------------------------------------------------------------

  Frequencies (cm-1) [NB: Negative implies an imaginary mode]:

  267.99  302.17  410.26  416.65  437.58  921.87


--------------------------------------------------------------------------------
  K point     55 =   0.062500  0.812500  0.812500  Weight =    0.004
--------------------------------------------------------------------------------

  Frequencies (cm-1) [NB: Negative implies an imaginary mode]:

  219.14  223.14  330.55  417.93  419.25  998.54


--------------------------------------------------------------------------------
  K point     56 =   0.062500  0.812500  0.937500  Weight =    0.004
--------------------------------------------------------------------------------

  Frequencies (cm-1) [NB: Negative implies an imaginary mode]:

  164.00  195.67  300.40  388.05  413.40 1040.29


--------------------------------------------------------------------------------
  K point     57 =   0.062500  0.937500  0.062500  Weight =    0.004
--------------------------------------------------------------------------------

  Frequencies (cm-1) [NB: Negative implies an imaginary mode]:

  100.44  105.06  173.26  399.64  402.67 1092.68


--------------------------------------------------------------------------------
  K point     58 =   0.062500  0.937500  0.187500  Weight =    0.004
--------------------------------------------------------------------------------

  Frequencies (cm-1) [NB: Negative implies an imaginary mode]:

  164.00  195.67  300.40  388.05  413.40 1040.29


--------------------------------------------------------------------------------
  K point     59 =   0.062500  0.937500  0.312500  Weight =    0.004
--------------------------------------------------------------------------------

  Frequencies (cm-1) [NB: Negative implies an imaginary mode]:

  237.66  267.67  373.13  407.41  466.32  947.50


--------------------------------------------------------------------------------
  K point     60 =   0.062500  0.937500  0.437500  Weight =    0.004
--------------------------------------------------------------------------------

  Frequencies (cm-1) [NB: Negative implies an imaginary mode]:

  287.66  312.13  362.69  391.86  622.29  829.97


--------------------------------------------------------------------------------
  K point     61 =   0.062500  0.937500  0.562500  Weight =    0.004
--------------------------------------------------------------------------------

  Frequencies (cm-1) [NB: Negative implies an imaginary mode]:

  287.66  312.13  362.69  391.86  622.29  829.97


--------------------------------------------------------------------------------
  K point     62 =   0.062500  0.937500  0.687500  Weight =    0.004
--------------------------------------------------------------------------------

  Frequencies (cm-1) [NB: Negative implies an imaginary mode]:

  237.66  267.67  373.13  407.41  466.32  947.50


--------------------------------------------------------------------------------
  K point     63 =   0.062500  0.937500  0.812500  Weight =    0.004
--------------------------------------------------------------------------------

  Frequencies (cm-1) [NB: Negative implies an imaginary mode]:

  164.00  195.67  300.40  388.05  413.40 1040.29


--------------------------------------------------------------------------------
  K point     64 =   0.062500  0.937500  0.937500  Weight =    0.004
--------------------------------------------------------------------------------

  Frequencies (cm-1) [NB: Negative implies an imaginary mode]:

  100.44  105.06  173.26  399.64  402.67 1092.68


--------------------------------------------------------------------------------
  K point     65 =   0.187500  0.062500  0.062500  Weight =    0.004
--------------------------------------------------------------------------------

  Frequencies (cm-1) [NB: Negative implies an imaginary mode]:

  117.10  142.09  232.35  388.63  405.77 1077.29


--------------------------------------------------------------------------------
  K point     66 =   0.187500  0.062500  0.187500  Weight =    0.004
--------------------------------------------------------------------------------

  Frequencies (cm-1) [NB: Negative implies an imaginary mode]:

  163.81  164.15  255.48  407.03  409.78 1052.99


--------------------------------------------------------------------------------
  K point     67 =   0.187500  0.062500  0.312500  Weight =    0.004
--------------------------------------------------------------------------------

  Frequencies (cm-1) [NB: Negative implies an imaginary mode]:

  218.30  251.13  363.01  397.67  424.07  986.08


--------------------------------------------------------------------------------
  K point     68 =   0.187500  0.062500  0.437500  Weight =    0.004
--------------------------------------------------------------------------------

  Frequencies (cm-1) [NB: Negative implies an imaginary mode]:

  275.23  318.81  387.26  421.19  508.67  883.27


--------------------------------------------------------------------------------
  K point     69 =   0.187500  0.062500  0.562500  Weight =    0.004
--------------------------------------------------------------------------------

  Frequencies (cm-1) [NB: Negative implies an imaginary mode]:

  303.68  350.33  377.24  421.03  638.31  772.75


--------------------------------------------------------------------------------
  K point     70 =   0.187500  0.062500  0.687500  Weight =    0.004
--------------------------------------------------------------------------------

  Frequencies (cm-1) [NB: Negative implies an imaginary mode]:

  286.92  344.88  366.19  431.46  559.59  840.77


--------------------------------------------------------------------------------
  K point     71 =   0.187500  0.062500  0.812500  Weight =    0.004
--------------------------------------------------------------------------------

  Frequencies (cm-1) [NB: Negative implies an imaginary mode]:

  228.90  297.72  372.56  406.71  435.90  956.26


--------------------------------------------------------------------------------
  K point     72 =   0.187500  0.062500  0.937500  Weight =    0.004
--------------------------------------------------------------------------------

  Frequencies (cm-1) [NB: Negative implies an imaginary mode]:

  164.00  195.67  300.40  388.05  413.40 1040.29


--------------------------------------------------------------------------------
  K point     73 =   0.187500  0.187500  0.062500  Weight =    0.004
--------------------------------------------------------------------------------

  Frequencies (cm-1) [NB: Negative implies an imaginary mode]:

  163.81  164.15  255.48  407.03  409.78 1052.99


--------------------------------------------------------------------------------
  K point     74 =   0.187500  0.187500  0.187500  Weight =    0.004
--------------------------------------------------------------------------------

  Frequencies (cm-1) [NB: Negative implies an imaginary mode]:

  145.11  145.11  287.10  391.67  391.67 1063.12


--------------------------------------------------------------------------------
  K point     75 =   0.187500  0.187500  0.312500  Weight =    0.004
--------------------------------------------------------------------------------

  Frequencies (cm-1) [NB: Negative implies an imaginary mode]:

  188.01  244.60  356.11  372.68  422.20 1007.87


--------------------------------------------------------------------------------
  K point     76 =   0.187500  0.187500  0.437500  Weight =    0.004
--------------------------------------------------------------------------------

  Frequencies (cm-1) [NB: Negative implies an imaginary mode]:

  253.59  347.92  360.28  438.97  462.46  907.75


--------------------------------------------------------------------------------
  K point     77 =   0.187500  0.187500  0.562500  Weight =    0.004
--------------------------------------------------------------------------------

  Frequencies (cm-1) [NB: Negative implies an imaginary mode]:

  299.45  364.79  373.29  445.61  600.75  786.02


--------------------------------------------------------------------------------
  K point     78 =   0.187500  0.187500  0.687500  Weight =    0.004
--------------------------------------------------------------------------------

  Frequencies (cm-1) [NB: Negative implies an imaginary mode]:

  299.48  357.99  392.27  428.93  594.56  793.74


--------------------------------------------------------------------------------
  K point     79 =   0.187500  0.187500  0.812500  Weight =    0.004
--------------------------------------------------------------------------------

  Frequencies (cm-1) [NB: Negative implies an imaginary mode]:

  269.49  303.10  414.08  415.20  457.23  909.94


--------------------------------------------------------------------------------
  K point     80 =   0.187500  0.187500  0.937500  Weight =    0.004
--------------------------------------------------------------------------------

  Frequencies (cm-1) [NB: Negative implies an imaginary mode]:

  219.14  223.14  330.55  417.93  419.25  998.54


--------------------------------------------------------------------------------
  K point     81 =   0.187500  0.312500  0.062500  Weight =    0.004
--------------------------------------------------------------------------------

  Frequencies (cm-1) [NB: Negative implies an imaginary mode]:

  218.30  251.13  363.01  397.67  424.07  986.08


--------------------------------------------------------------------------------
  K point     82 =   0.187500  0.312500  0.187500  Weight =    0.004
--------------------------------------------------------------------------------

  Frequencies (cm-1) [NB: Negative implies an imaginary mode]:

  188.01  244.60  356.11  372.68  422.20 1007.87


--------------------------------------------------------------------------------
  K point     83 =   0.187500  0.312500  0.312500  Weight =    0.004
--------------------------------------------------------------------------------

  Frequencies (cm-1) [NB: Negative implies an imaginary mode]:

  229.96  242.57  393.11  405.16  412.69  974.97


--------------------------------------------------------------------------------
  K point     84 =   0.187500  0.312500  0.437500  Weight =    0.004
--------------------------------------------------------------------------------

  Frequencies (cm-1) [NB: Negative implies an imaginary mode]:

  274.15  346.17  387.21  439.88  459.40  891.53


--------------------------------------------------------------------------------
  K point     85 =   0.187500  0.312500  0.562500  Weight =    0.004
--------------------------------------------------------------------------------

  Frequencies (cm-1) [NB: Negative implies an imaginary mode]:

  320.45  394.59  417.36  473.91  532.22  773.07


--------------------------------------------------------------------------------
  K point     86 =   0.187500  0.312500  0.687500  Weight =    0.004
--------------------------------------------------------------------------------

  Frequencies (cm-1) [NB: Negative implies an imaginary mode]:

  336.50  410.41  416.01  471.77  602.08  704.49


--------------------------------------------------------------------------------
  K point     87 =   0.187500  0.312500  0.812500  Weight =    0.004
--------------------------------------------------------------------------------

  Frequencies (cm-1) [NB: Negative implies an imaginary mode]:

  315.50  384.03  412.33  459.16  485.62  822.07


--------------------------------------------------------------------------------
  K point     88 =   0.187500  0.312500  0.937500  Weight =    0.004
--------------------------------------------------------------------------------

  Frequencies (cm-1) [NB: Negative implies an imaginary mode]:

  267.99  302.17  410.26  416.65  437.58  921.87


--------------------------------------------------------------------------------
  K point     89 =   0.187500  0.437500  0.062500  Weight =    0.004
--------------------------------------------------------------------------------

  Frequencies (cm-1) [NB: Negative implies an imaginary mode]:

  275.23  318.81  387.26  421.19  508.67  883.27


--------------------------------------------------------------------------------
  K point     90 =   0.187500  0.437500  0.187500  Weight =    0.004
--------------------------------------------------------------------------------

  Frequencies (cm-1) [NB: Negative implies an imaginary mode]:

  253.59  347.92  360.28  438.97  462.46  907.75


--------------------------------------------------------------------------------
  K point     91 =   0.187500  0.437500  0.312500  Weight =    0.004
--------------------------------------------------------------------------------

  Frequencies (cm-1) [NB: Negative implies an imaginary mode]:

  274.15  346.17  387.21  439.88  459.40  891.53


--------------------------------------------------------------------------------
  K point     92 =   0.187500  0.437500  0.437500  Weight =    0.004
--------------------------------------------------------------------------------

  Frequencies (cm-1) [NB: Negative implies an imaginary mode]:

  301.29  356.95  423.04  443.57  487.70  841.68


--------------------------------------------------------------------------------
  K point     93 =   0.187500  0.437500  0.562500  Weight =    0.004
--------------------------------------------------------------------------------

  Frequencies (cm-1) [NB: Negative implies an imaginary mode]:

  347.78  410.23  439.49  472.25  504.70  758.83


--------------------------------------------------------------------------------
  K point     94 =   0.187500  0.437500  0.687500  Weight =    0.004
--------------------------------------------------------------------------------

  Frequencies (cm-1) [NB: Negative implies an imaginary mode]:

  379.11  446.20  462.24  466.11  578.92  652.01


--------------------------------------------------------------------------------
  K point     95 =   0.187500  0.437500  0.812500  Weight =    0.004
--------------------------------------------------------------------------------

  Frequencies (cm-1) [NB: Negative implies an imaginary mode]:

  354.21  431.04  434.49  476.06  560.18  703.51


--------------------------------------------------------------------------------
  K point     96 =   0.187500  0.437500  0.937500  Weight =    0.004
--------------------------------------------------------------------------------

  Frequencies (cm-1) [NB: Negative implies an imaginary mode]:

  305.75  367.97  406.23  444.63  536.25  812.54


--------------------------------------------------------------------------------
  K point     97 =   0.187500  0.562500  0.062500  Weight =    0.004
--------------------------------------------------------------------------------

  Frequencies (cm-1) [NB: Negative implies an imaginary mode]:

  303.68  350.33  377.24  421.03  638.31  772.75


--------------------------------------------------------------------------------
  K point     98 =   0.187500  0.562500  0.187500  Weight =    0.004
--------------------------------------------------------------------------------

  Frequencies (cm-1) [NB: Negative implies an imaginary mode]:

  299.45  364.79  373.29  445.61  600.75  786.02


--------------------------------------------------------------------------------
  K point     99 =   0.187500  0.562500  0.312500  Weight =    0.004
--------------------------------------------------------------------------------

  Frequencies (cm-1) [NB: Negative implies an imaginary mode]:

  320.45  394.59  417.36  473.91  532.22  773.07


--------------------------------------------------------------------------------
  K point    100 =   0.187500  0.562500  0.437500  Weight =    0.004
--------------------------------------------------------------------------------

  Frequencies (cm-1) [NB: Negative implies an imaginary mode]:

  347.78  410.23  439.49  472.25  504.70  758.83


--------------------------------------------------------------------------------
  K point    101 =   0.187500  0.562500  0.562500  Weight =    0.004
--------------------------------------------------------------------------------

  Frequencies (cm-1) [NB: Negative implies an imaginary mode]:

  334.09  427.47  434.98  479.64  519.24  742.35


--------------------------------------------------------------------------------
  K point    102 =   0.187500  0.562500  0.687500  Weight =    0.004
--------------------------------------------------------------------------------

  Frequencies (cm-1) [NB: Negative implies an imaginary mode]:

  365.98  425.66  457.65  475.43  518.12  717.66


--------------------------------------------------------------------------------
  K point    103 =   0.187500  0.562500  0.812500  Weight =    0.004
--------------------------------------------------------------------------------

  Frequencies (cm-1) [NB: Negative implies an imaginary mode]:

  354.21  431.04  434.49  476.06  560.18  703.51


--------------------------------------------------------------------------------
  K point    104 =   0.187500  0.562500  0.937500  Weight =    0.004
--------------------------------------------------------------------------------

  Frequencies (cm-1) [NB: Negative implies an imaginary mode]:

  314.68  383.84  396.64  461.00  621.97  731.06


--------------------------------------------------------------------------------
  K point    105 =   0.187500  0.687500  0.062500  Weight =    0.004
--------------------------------------------------------------------------------

  Frequencies (cm-1) [NB: Negative implies an imaginary mode]:

  286.92  344.88  366.19  431.46  559.59  840.77


--------------------------------------------------------------------------------
  K point    106 =   0.187500  0.687500  0.187500  Weight =    0.004
--------------------------------------------------------------------------------

  Frequencies (cm-1) [NB: Negative implies an imaginary mode]:

  299.48  357.99  392.27  428.93  594.56  793.74


--------------------------------------------------------------------------------
  K point    107 =   0.187500  0.687500  0.312500  Weight =    0.004
--------------------------------------------------------------------------------

  Frequencies (cm-1) [NB: Negative implies an imaginary mode]:

  336.50  410.41  416.01  471.78  602.08  704.49


--------------------------------------------------------------------------------
  K point    108 =   0.187500  0.687500  0.437500  Weight =    0.004
--------------------------------------------------------------------------------

  Frequencies (cm-1) [NB: Negative implies an imaginary mode]:

  379.11  446.20  462.24  466.11  578.92  652.01


--------------------------------------------------------------------------------
  K point    109 =   0.187500  0.687500  0.562500  Weight =    0.004
--------------------------------------------------------------------------------

  Frequencies (cm-1) [NB: Negative implies an imaginary mode]:

  365.98  425.66  457.65  475.43  518.12  717.66


--------------------------------------------------------------------------------
  K point    110 =   0.187500  0.687500  0.687500  Weight =    0.004
--------------------------------------------------------------------------------

  Frequencies (cm-1) [NB: Negative implies an imaginary mode]:

  323.12  399.71  430.58  470.51  505.50  780.93


--------------------------------------------------------------------------------
  K point    111 =   0.187500  0.687500  0.812500  Weight =    0.004
--------------------------------------------------------------------------------

  Frequencies (cm-1) [NB: Negative implies an imaginary mode]:

  315.50  384.03  412.33  459.16  485.62  822.07


--------------------------------------------------------------------------------
  K point    112 =   0.187500  0.687500  0.937500  Weight =    0.004
--------------------------------------------------------------------------------

  Frequencies (cm-1) [NB: Negative implies an imaginary mode]:

  286.00  367.81  389.79  459.16  498.86  844.37


--------------------------------------------------------------------------------
  K point    113 =   0.187500  0.812500  0.062500  Weight =    0.004
--------------------------------------------------------------------------------

  Frequencies (cm-1) [NB: Negative implies an imaginary mode]:

  228.90  297.72  372.56  406.71  435.90  956.26


--------------------------------------------------------------------------------
  K point    114 =   0.187500  0.812500  0.187500  Weight =    0.004
--------------------------------------------------------------------------------

  Frequencies (cm-1) [NB: Negative implies an imaginary mode]:

  269.49  303.10  414.08  415.20  457.23  909.94


--------------------------------------------------------------------------------
  K point    115 =   0.187500  0.812500  0.312500  Weight =    0.004
--------------------------------------------------------------------------------

  Frequencies (cm-1) [NB: Negative implies an imaginary mode]:

  315.50  384.03  412.33  459.16  485.62  822.07


--------------------------------------------------------------------------------
  K point    116 =   0.187500  0.812500  0.437500  Weight =    0.004
--------------------------------------------------------------------------------

  Frequencies (cm-1) [NB: Negative implies an imaginary mode]:

  354.21  431.04  434.49  476.06  560.18  703.51


--------------------------------------------------------------------------------
  K point    117 =   0.187500  0.812500  0.562500  Weight =    0.004
--------------------------------------------------------------------------------

  Frequencies (cm-1) [NB: Negative implies an imaginary mode]:

  354.21  431.04  434.49  476.06  560.18  703.51


--------------------------------------------------------------------------------
  K point    118 =   0.187500  0.812500  0.687500  Weight =    0.004
--------------------------------------------------------------------------------

  Frequencies (cm-1) [NB: Negative implies an imaginary mode]:

  315.50  384.03  412.33  459.16  485.62  822.07


--------------------------------------------------------------------------------
  K point    119 =   0.187500  0.812500  0.812500  Weight =    0.004
--------------------------------------------------------------------------------

  Frequencies (cm-1) [NB: Negative implies an imaginary mode]:

  269.49  303.10  414.08  415.20  457.23  909.94


--------------------------------------------------------------------------------
  K point    120 =   0.187500  0.812500  0.937500  Weight =    0.004
--------------------------------------------------------------------------------

  Frequencies (cm-1) [NB: Negative implies an imaginary mode]:

  228.90  297.72  372.56  406.71  435.90  956.26


--------------------------------------------------------------------------------
  K point    121 =   0.187500  0.937500  0.062500  Weight =    0.004
--------------------------------------------------------------------------------

  Frequencies (cm-1) [NB: Negative implies an imaginary mode]:

  164.00  195.67  300.40  388.05  413.40 1040.29


--------------------------------------------------------------------------------
  K point    122 =   0.187500  0.937500  0.187500  Weight =    0.004
--------------------------------------------------------------------------------

  Frequencies (cm-1) [NB: Negative implies an imaginary mode]:

  219.14  223.14  330.55  417.93  419.25  998.54


--------------------------------------------------------------------------------
  K point    123 =   0.187500  0.937500  0.312500  Weight =    0.004
--------------------------------------------------------------------------------

  Frequencies (cm-1) [NB: Negative implies an imaginary mode]:

  267.99  302.17  410.26  416.65  437.58  921.87


--------------------------------------------------------------------------------
  K point    124 =   0.187500  0.937500  0.437500  Weight =    0.004
--------------------------------------------------------------------------------

  Frequencies (cm-1) [NB: Negative implies an imaginary mode]:

  305.75  367.97  406.23  444.63  536.25  812.54


--------------------------------------------------------------------------------
  K point    125 =   0.187500  0.937500  0.562500  Weight =    0.004
--------------------------------------------------------------------------------

  Frequencies (cm-1) [NB: Negative implies an imaginary mode]:

  314.68  383.84  396.64  461.00  621.97  731.06


--------------------------------------------------------------------------------
  K point    126 =   0.187500  0.937500  0.687500  Weight =    0.004
--------------------------------------------------------------------------------

  Frequencies (cm-1) [NB: Negative implies an imaginary mode]:

  286.00  367.81  389.79  459.16  498.86  844.37


--------------------------------------------------------------------------------
  K point    127 =   0.187500  0.937500  0.812500  Weight =    0.004
--------------------------------------------------------------------------------

  Frequencies (cm-1) [NB: Negative implies an imaginary mode]:

  228.90  297.72  372.56  406.71  435.90  956.26


--------------------------------------------------------------------------------
  K point    128 =   0.187500  0.937500  0.937500  Weight =    0.004
--------------------------------------------------------------------------------

  Frequencies (cm-1) [NB: Negative implies an imaginary mode]:

  184.34  186.45  350.51  387.50  397.40 1028.26


--------------------------------------------------------------------------------
  K point    129 =   0.312500  0.062500  0.062500  Weight =    0.004
--------------------------------------------------------------------------------

  Frequencies (cm-1) [NB: Negative implies an imaginary mode]:

  201.59  221.78  374.07  397.59  412.71  997.54


--------------------------------------------------------------------------------
  K point    130 =   0.312500  0.062500  0.187500  Weight =    0.004
--------------------------------------------------------------------------------

  Frequencies (cm-1) [NB: Negative implies an imaginary mode]:

  218.30  251.13  363.01  397.67  424.07  986.08


--------------------------------------------------------------------------------
  K point    131 =   0.312500  0.062500  0.312500  Weight =    0.004
--------------------------------------------------------------------------------

  Frequencies (cm-1) [NB: Negative implies an imaginary mode]:

  266.58  274.39  393.19  429.90  430.84  936.02


--------------------------------------------------------------------------------
  K point    132 =   0.312500  0.062500  0.437500  Weight =    0.004
--------------------------------------------------------------------------------

  Frequencies (cm-1) [NB: Negative implies an imaginary mode]:

  307.85  344.29  430.07  447.25  456.83  856.54


--------------------------------------------------------------------------------
  K point    133 =   0.312500  0.062500  0.562500  Weight =    0.004
--------------------------------------------------------------------------------

  Frequencies (cm-1) [NB: Negative implies an imaginary mode]:

  326.69  412.07  419.05  472.11  553.50  744.87


--------------------------------------------------------------------------------
  K point    134 =   0.312500  0.062500  0.687500  Weight =    0.004
--------------------------------------------------------------------------------

  Frequencies (cm-1) [NB: Negative implies an imaginary mode]:

  320.05  389.48  438.28  484.25  588.80  713.60


--------------------------------------------------------------------------------
  K point    135 =   0.312500  0.062500  0.812500  Weight =    0.004
--------------------------------------------------------------------------------

  Frequencies (cm-1) [NB: Negative implies an imaginary mode]:

  286.00  367.81  389.79  459.16  498.86  844.37


--------------------------------------------------------------------------------
  K point    136 =   0.312500  0.062500  0.937500  Weight =    0.004
--------------------------------------------------------------------------------

  Frequencies (cm-1) [NB: Negative implies an imaginary mode]:

  237.66  267.67  373.13  407.41  466.32  947.50


--------------------------------------------------------------------------------
  K point    137 =   0.312500  0.187500  0.062500  Weight =    0.004
--------------------------------------------------------------------------------

  Frequencies (cm-1) [NB: Negative implies an imaginary mode]:

  218.30  251.13  363.01  397.67  424.07  986.08


--------------------------------------------------------------------------------
  K point    138 =   0.312500  0.187500  0.187500  Weight =    0.004
--------------------------------------------------------------------------------

  Frequencies (cm-1) [NB: Negative implies an imaginary mode]:

  188.01  244.60  356.11  372.68  422.20 1007.87


--------------------------------------------------------------------------------
  K point    139 =   0.312500  0.187500  0.312500  Weight =    0.004
--------------------------------------------------------------------------------

  Frequencies (cm-1) [NB: Negative implies an imaginary mode]:

  229.96  242.57  393.11  405.16  412.69  974.97


--------------------------------------------------------------------------------
  K point    140 =   0.312500  0.187500  0.437500  Weight =    0.004
--------------------------------------------------------------------------------

  Frequencies (cm-1) [NB: Negative implies an imaginary mode]:

  274.15  346.17  387.21  439.88  459.40  891.53


--------------------------------------------------------------------------------
  K point    141 =   0.312500  0.187500  0.562500  Weight =    0.004
--------------------------------------------------------------------------------

  Frequencies (cm-1) [NB: Negative implies an imaginary mode]:

  320.45  394.59  417.36  473.91  532.22  773.07


--------------------------------------------------------------------------------
  K point    142 =   0.312500  0.187500  0.687500  Weight =    0.004
--------------------------------------------------------------------------------

  Frequencies (cm-1) [NB: Negative implies an imaginary mode]:

  336.50  410.41  416.01  471.77  602.08  704.49


--------------------------------------------------------------------------------
  K point    143 =   0.312500  0.187500  0.812500  Weight =    0.004
--------------------------------------------------------------------------------

  Frequencies (cm-1) [NB: Negative implies an imaginary mode]:

  315.50  384.03  412.33  459.16  485.62  822.07


--------------------------------------------------------------------------------
  K point    144 =   0.312500  0.187500  0.937500  Weight =    0.004
--------------------------------------------------------------------------------

  Frequencies (cm-1) [NB: Negative implies an imaginary mode]:

  267.99  302.17  410.26  416.65  437.58  921.87


--------------------------------------------------------------------------------
  K point    145 =   0.312500  0.312500  0.062500  Weight =    0.004
--------------------------------------------------------------------------------

  Frequencies (cm-1) [NB: Negative implies an imaginary mode]:

  266.58  274.39  393.19  429.90  430.84  936.02


--------------------------------------------------------------------------------
  K point    146 =   0.312500  0.312500  0.187500  Weight =    0.004
--------------------------------------------------------------------------------

  Frequencies (cm-1) [NB: Negative implies an imaginary mode]:

  229.96  242.57  393.11  405.16  412.69  974.97


--------------------------------------------------------------------------------
  K point    147 =   0.312500  0.312500  0.312500  Weight =    0.004
--------------------------------------------------------------------------------

  Frequencies (cm-1) [NB: Negative implies an imaginary mode]:

  224.68  224.68  376.85  376.85  472.80  970.42


--------------------------------------------------------------------------------
  K point    148 =   0.312500  0.312500  0.437500  Weight =    0.004
--------------------------------------------------------------------------------

  Frequencies (cm-1) [NB: Negative implies an imaginary mode]:

  258.86  305.53  359.22  417.21  518.36  901.64


--------------------------------------------------------------------------------
[...]
--------------------------------------------------------------------------------

  Frequencies (cm-1) [NB: Negative implies an imaginary mode]:

  277.94  307.44  386.27  390.25  569.64  863.06


--------------------------------------------------------------------------------
  K point    220 =   0.437500  0.437500  0.437500  Weight =    0.004
--------------------------------------------------------------------------------

  Frequencies (cm-1) [NB: Negative implies an imaginary mode]:

  279.05  279.05  356.76  356.76  636.63  852.64


--------------------------------------------------------------------------------
  K point    221 =   0.437500  0.437500  0.562500  Weight =    0.004
--------------------------------------------------------------------------------

  Frequencies (cm-1) [NB: Negative implies an imaginary mode]:

  295.83  329.33  360.75  400.70  652.10  792.61


--------------------------------------------------------------------------------
  K point    222 =   0.437500  0.437500  0.687500  Weight =    0.004
--------------------------------------------------------------------------------

  Frequencies (cm-1) [NB: Negative implies an imaginary mode]:

  314.22  397.85  406.92  469.63  606.47  725.10


--------------------------------------------------------------------------------
  K point    223 =   0.437500  0.437500  0.812500  Weight =    0.004
--------------------------------------------------------------------------------

  Frequencies (cm-1) [NB: Negative implies an imaginary mode]:

  334.09  427.47  434.98  479.64  519.24  742.35


--------------------------------------------------------------------------------
  K point    224 =   0.437500  0.437500  0.937500  Weight =    0.004
--------------------------------------------------------------------------------

  Frequencies (cm-1) [NB: Negative implies an imaginary mode]:

  342.12  356.40  453.89  462.89  487.10  795.39


--------------------------------------------------------------------------------
  K point    225 =   0.437500  0.562500  0.062500  Weight =    0.004
--------------------------------------------------------------------------------

  Frequencies (cm-1) [NB: Negative implies an imaginary mode]:

  349.07  390.17  452.85  480.44  483.99  768.09


--------------------------------------------------------------------------------
  K point    226 =   0.437500  0.562500  0.187500  Weight =    0.004
--------------------------------------------------------------------------------

  Frequencies (cm-1) [NB: Negative implies an imaginary mode]:

  347.78  410.23  439.49  472.25  504.70  758.83


--------------------------------------------------------------------------------
  K point    227 =   0.437500  0.562500  0.312500  Weight =    0.004
--------------------------------------------------------------------------------

  Frequencies (cm-1) [NB: Negative implies an imaginary mode]:

  314.25  378.20  391.20  451.09  586.87  771.82


--------------------------------------------------------------------------------
  K point    228 =   0.437500  0.562500  0.437500  Weight =    0.004
--------------------------------------------------------------------------------

  Frequencies (cm-1) [NB: Negative implies an imaginary mode]:

  295.83  329.33  360.75  400.70  652.10  792.61


--------------------------------------------------------------------------------
  K point    229 =   0.437500  0.562500  0.562500  Weight =    0.004
--------------------------------------------------------------------------------

  Frequencies (cm-1) [NB: Negative implies an imaginary mode]:

  295.83  329.33  360.75  400.70  652.10  792.61


--------------------------------------------------------------------------------
  K point    230 =   0.437500  0.562500  0.687500  Weight =    0.004
--------------------------------------------------------------------------------

  Frequencies (cm-1) [NB: Negative implies an imaginary mode]:

  314.25  378.20  391.20  451.09  586.87  771.82


--------------------------------------------------------------------------------
  K point    231 =   0.437500  0.562500  0.812500  Weight =    0.004
--------------------------------------------------------------------------------

  Frequencies (cm-1) [NB: Negative implies an imaginary mode]:

  347.78  410.23  439.49  472.25  504.70  758.83


--------------------------------------------------------------------------------
  K point    232 =   0.437500  0.562500  0.937500  Weight =    0.004
--------------------------------------------------------------------------------

  Frequencies (cm-1) [NB: Negative implies an imaginary mode]:

  349.07  390.17  452.85  480.44  483.99  768.09


--------------------------------------------------------------------------------
  K point    233 =   0.437500  0.687500  0.062500  Weight =    0.004
--------------------------------------------------------------------------------

  Frequencies (cm-1) [NB: Negative implies an imaginary mode]:

  337.19  425.32  450.07  476.52  571.62  695.39


--------------------------------------------------------------------------------
  K point    234 =   0.437500  0.687500  0.187500  Weight =    0.004
--------------------------------------------------------------------------------

  Frequencies (cm-1) [NB: Negative implies an imaginary mode]:

  379.11  446.20  462.24  466.11  578.92  652.01


--------------------------------------------------------------------------------
  K point    235 =   0.437500  0.687500  0.312500  Weight =    0.004
--------------------------------------------------------------------------------

  Frequencies (cm-1) [NB: Negative implies an imaginary mode]:

  348.69  424.51  448.50  477.58  615.54  651.92


--------------------------------------------------------------------------------
  K point    236 =   0.437500  0.687500  0.437500  Weight =    0.004
--------------------------------------------------------------------------------

  Frequencies (cm-1) [NB: Negative implies an imaginary mode]:

  314.22  397.85  406.92  469.63  606.47  725.10


--------------------------------------------------------------------------------
  K point    237 =   0.437500  0.687500  0.562500  Weight =    0.004
--------------------------------------------------------------------------------

  Frequencies (cm-1) [NB: Negative implies an imaginary mode]:

  314.25  378.20  391.20  451.09  586.87  771.82


--------------------------------------------------------------------------------
  K point    238 =   0.437500  0.687500  0.687500  Weight =    0.004
--------------------------------------------------------------------------------

  Frequencies (cm-1) [NB: Negative implies an imaginary mode]:

  300.84  367.55  420.18  476.74  544.37  783.08


--------------------------------------------------------------------------------
  K point    239 =   0.437500  0.687500  0.812500  Weight =    0.004
--------------------------------------------------------------------------------

  Frequencies (cm-1) [NB: Negative implies an imaginary mode]:

  320.45  394.59  417.36  473.91  532.22  773.07


--------------------------------------------------------------------------------
  K point    240 =   0.437500  0.687500  0.937500  Weight =    0.004
--------------------------------------------------------------------------------

  Frequencies (cm-1) [NB: Negative implies an imaginary mode]:

  326.69  412.07  419.05  472.11  553.50  744.87


--------------------------------------------------------------------------------
  K point    241 =   0.437500  0.812500  0.062500  Weight =    0.004
--------------------------------------------------------------------------------

  Frequencies (cm-1) [NB: Negative implies an imaginary mode]:

  314.68  383.84  396.64  461.00  621.97  731.06


--------------------------------------------------------------------------------
  K point    242 =   0.437500  0.812500  0.187500  Weight =    0.004
--------------------------------------------------------------------------------

  Frequencies (cm-1) [NB: Negative implies an imaginary mode]:

  354.21  431.04  434.49  476.06  560.18  703.51


--------------------------------------------------------------------------------
  K point    243 =   0.437500  0.812500  0.312500  Weight =    0.004
--------------------------------------------------------------------------------

  Frequencies (cm-1) [NB: Negative implies an imaginary mode]:

  365.98  425.66  457.65  475.43  518.12  717.66


--------------------------------------------------------------------------------
  K point    244 =   0.437500  0.812500  0.437500  Weight =    0.004
--------------------------------------------------------------------------------

  Frequencies (cm-1) [NB: Negative implies an imaginary mode]:

  334.09  427.47  434.98  479.64  519.24  742.35


--------------------------------------------------------------------------------
  K point    245 =   0.437500  0.812500  0.562500  Weight =    0.004
--------------------------------------------------------------------------------

  Frequencies (cm-1) [NB: Negative implies an imaginary mode]:

  347.78  410.23  439.49  472.25  504.70  758.83


--------------------------------------------------------------------------------
  K point    246 =   0.437500  0.812500  0.687500  Weight =    0.004
--------------------------------------------------------------------------------

  Frequencies (cm-1) [NB: Negative implies an imaginary mode]:

  320.45  394.59  417.36  473.91  532.22  773.07


--------------------------------------------------------------------------------
  K point    247 =   0.437500  0.812500  0.812500  Weight =    0.004
--------------------------------------------------------------------------------

  Frequencies (cm-1) [NB: Negative implies an imaginary mode]:

  299.45  364.79  373.29  445.61  600.75  786.02


--------------------------------------------------------------------------------
  K point    248 =   0.437500  0.812500  0.937500  Weight =    0.004
--------------------------------------------------------------------------------

  Frequencies (cm-1) [NB: Negative implies an imaginary mode]:

  303.68  350.33  377.24  421.03  638.31  772.75


--------------------------------------------------------------------------------
  K point    249 =   0.437500  0.937500  0.062500  Weight =    0.004
--------------------------------------------------------------------------------

  Frequencies (cm-1) [NB: Negative implies an imaginary mode]:

  287.66  312.13  362.69  391.86  622.29  829.97


--------------------------------------------------------------------------------
  K point    250 =   0.437500  0.937500  0.187500  Weight =    0.004
--------------------------------------------------------------------------------

  Frequencies (cm-1) [NB: Negative implies an imaginary mode]:

  305.75  367.97  406.23  444.63  536.25  812.54


--------------------------------------------------------------------------------
  K point    251 =   0.437500  0.937500  0.312500  Weight =    0.004
--------------------------------------------------------------------------------

  Frequencies (cm-1) [NB: Negative implies an imaginary mode]:

  335.25  374.29  444.85  466.67  476.02  801.05


--------------------------------------------------------------------------------
  K point    252 =   0.437500  0.937500  0.437500  Weight =    0.004
--------------------------------------------------------------------------------

  Frequencies (cm-1) [NB: Negative implies an imaginary mode]:

  342.12  356.40  453.89  462.89  487.10  795.39


--------------------------------------------------------------------------------
  K point    253 =   0.437500  0.937500  0.562500  Weight =    0.004
--------------------------------------------------------------------------------

  Frequencies (cm-1) [NB: Negative implies an imaginary mode]:

  349.07  390.17  452.85  480.44  483.99  768.09


--------------------------------------------------------------------------------
  K point    254 =   0.437500  0.937500  0.687500  Weight =    0.004
--------------------------------------------------------------------------------

  Frequencies (cm-1) [NB: Negative implies an imaginary mode]:

  326.69  412.07  419.05  472.11  553.50  744.87


--------------------------------------------------------------------------------
  K point    255 =   0.437500  0.937500  0.812500  Weight =    0.004
--------------------------------------------------------------------------------

  Frequencies (cm-1) [NB: Negative implies an imaginary mode]:

  303.68  350.33  377.24  421.03  638.31  772.75


--------------------------------------------------------------------------------
  K point    256 =   0.437500  0.937500  0.937500  Weight =    0.004
--------------------------------------------------------------------------------

  Frequencies (cm-1) [NB: Negative implies an imaginary mode]:

  288.96  298.69  357.65  363.28  665.82  815.69


--------------------------------------------------------------------------------
  Phonon properties (per mole of unit cells): Temperature =      0.000 K
--------------------------------------------------------------------------------
  Zero point energy            =        0.174331 eV
--------------------------------------------------------------------------------

  Phonon density of states : 

--------------------------------------------------------------------------------
 Frequency (cm-1) Density of States                                             
--------------------------------------------------------------------------------
    0.00000 |                                                              0.000
   17.38255 |                                                              0.000
   34.76510 |*                                                             0.001
   52.14765 |                                                              0.000
   69.53021 |                                                              0.000
   86.91276 |**                                                            0.003
  104.29531 |***                                                           0.004
  121.67786 |                                                              0.000
  139.06041 |**                                                            0.003
  156.44296 |*******                                                       0.010
  173.82552 |****                                                          0.006
  191.20807 |****                                                          0.006
  208.59062 |********                                                      0.011
  225.97317 |**********                                                    0.014
  243.35572 |************                                                  0.016
  260.73827 |*******************                                           0.025
  278.12082 |*************                                                 0.018
  295.50338 |************************************                          0.047
  312.88593 |******************************                                0.039
  330.26848 |************************                                      0.031
  347.65103 |******************************************                    0.054
  365.03358 |******************************************                    0.054
  382.41613 |***********************************************************   0.077
  399.79868 |***************************************************           0.066
  417.18124 |*****************************************************         0.068
  434.56379 |**************************************************            0.064
  451.94634 |*****************************************                     0.053
  469.32889 |*************************************************             0.063
  486.71144 |******                                                        0.008
  504.09399 |*************                                                 0.018
  521.47655 |*******                                                       0.010
  538.85910 |****                                                          0.006
  556.24165 |**********                                                    0.014
  573.62420 |**********                                                    0.014
  591.00675 |*******                                                       0.010
  608.38930 |**********                                                    0.014
  625.77185 |***                                                           0.005
  643.15441 |*******                                                       0.010
  660.53696 |***                                                           0.004
  677.91951 |                                                              0.000
  695.30206 |*********                                                     0.012
  712.68461 |*******                                                       0.010
  730.06716 |*******                                                       0.010
  747.44971 |***                                                           0.004
  764.83227 |*************                                                 0.018
  782.21482 |*******                                                       0.010
  799.59737 |*******                                                       0.010
  816.97992 |*******                                                       0.010
  834.36247 |*******                                                       0.010
  851.74502 |*****                                                         0.007
  869.12758 |******                                                        0.008
  886.51013 |****                                                          0.006
  903.89268 |***                                                           0.004
  921.27523 |******                                                        0.008
  938.65778 |***                                                           0.004
  956.04033 |***                                                           0.005
  973.42288 |****                                                          0.006
  990.80544 |****                                                          0.006
 1008.18799 |                                                              0.000
 1025.57054 |****                                                          0.006
 1042.95309 |*                                                             0.002
 1060.33564 |**                                                            0.003
 1077.71819 |*                                                             0.002
 1095.10074 |                                                              0.001
--------------------------------------------------------------------------------




  Phonon density of states written as mgo_ph_dos_8.dens             



  Time to end of properties =       0.1875 seconds


  Peak dynamic memory used =       0.50 MB 


  Timing analysis for GULP :

--------------------------------------------------------------------------------
  Task / Subroutine                                          Time (Seconds)
--------------------------------------------------------------------------------
  Calculation of reciprocal space energy and derivatives          0.0469
  Calculation of real space energy and derivatives                0.1250
  Calculation of phonons                                          0.1719
  Calculation of scattering                                       0.0000
--------------------------------------------------------------------------------
  Total CPU time                                                  0.1875
--------------------------------------------------------------------------------


  Job Finished at 14:10.25 21st November   2022                               

