********************************************************************************
*                       GENERAL UTILITY LATTICE PROGRAM                        *
*                                 Julian Gale                                  *
*                       Curtin Institute for Computation                       *
*                    School of Molecular and Life Sciences                     *
*                    Curtin University, Western Australia                      *
********************************************************************************
* Version = 6.0.0 * Last modified =   7th July 2020                            *
********************************************************************************
*  gradient     - perform gradient run                                         *
*  conp         - constant pressure calculation                                *
*  cosmic       - use COSMIC solvation energy (integral charges)               *
*  molecule     - molecule option activated, Coulomb subtract within molecule  *
********************************************************************************

  Job Started  at 11:50.31  8th July       2020                               

  Number of CPUs =     1

  Host name      = M-A0034725                              


  Total number of configurations input =      1

********************************************************************************
*  Input for Configuration =   1                                               *
********************************************************************************

  Formula = CON2H4                                                      

  Number of irreducible atoms/shells =       8


  Total number atoms/shells =       8

  Dimensionality = 0               :  Cluster


  Charge on cluster =   0.000000

  Solvated with COSMIC model : 

  Dielectric constant        =    78.400000
  Solvent radius             =     1.500000 Angstroms
  Delta solvent radius       =     0.100000 Angstroms
  Cutoff : point to segment  =     8.000000 Angstroms
  Smooth : point to segment  =     1.000000 Angstroms
  Smooth : point inclusion   =     0.500000 Angstroms
  Coulomb: Wolf sum eta      =     0.050000 Angstroms-1
  Coulomb: Wolf sum cutoff   =    20.000000 Angstroms
  No. of points per sphere   =          110
  No. of segments per sphere =          110
  For generation of SAS use  = cores only
  Shape of atomic mesh       = Octahedron


  Initial cluster dipoles : x =      0.000004 e.Angs
                            y =     -0.000004 e.Angs
                            z =      0.906007 e.Angs

  Temperature of configuration =   0.00     K 

  Symmetry number =      1

  Cartesian coordinates of cluster :

--------------------------------------------------------------------------------
   No.  Atomic       x           y          z         Charge      Occupancy
        Label      (Angs)      (Angs)     (Angs)        (e)         (Frac)  
--------------------------------------------------------------------------------
      1 C     c      2.7754      0.0000      2.8879     0.38000    1.000000    
      2 O     c      2.7754 *    0.0000 *    1.6579 *  -0.38000    1.000000    
      3 N     c      3.5755 *   -0.8001 *    3.5678 *  -0.83000    1.000000    
      4 N     c      1.9754 *    0.8001 *    3.5678 *  -0.83000    1.000000    
      5 H     c      4.2100 *   -1.4346 *    3.0704 *   0.41500    1.000000    
      6 H     c      1.3408 *    1.4346 *    3.0704 *   0.41500    1.000000    
      7 H     c      3.5628 *   -0.7874 *    4.5936 *   0.41500    1.000000    
      8 H     c      1.9880 *    0.7874 *    4.5936 *   0.41500    1.000000    
--------------------------------------------------------------------------------



  Molecule list generated from bond lengths :

  Total number of molecules =     1

--------------------------------------------------------------------------------
Molecule No./:  Atoms
Periodicity  :  
--------------------------------------------------------------------------------
     1  0    : C    c     1 O    c     2 N    c     3 N    c     4 H    c     5
             : H    c     6 H    c     7 H    c     8
--------------------------------------------------------------------------------


********************************************************************************
*  General input information                                                   *
********************************************************************************

  Species output for all configurations : 

--------------------------------------------------------------------------------
  Species    Type    Atomic    Atomic    Charge       Radii (Angs)     Library
                     Number     Mass       (e)     Cova   Ionic  VDW   Symbol
--------------------------------------------------------------------------------
    C        Core        6      12.01   0.380000   0.870  0.000  1.530          
    O        Core        8      16.00  -0.380000   0.730  0.000  1.360          
    N        Core        7      14.01  -0.830000   0.750  0.000  1.480          
    H        Core        1       1.01   0.415000   0.330  0.000  1.080          
--------------------------------------------------------------------------------


  Accuracy factor for short range sums = 12.000

  Electrostatics method = Direct Coulomb

  Analytic derivatives to be used

  Time limit = Infinity

  Maximum range for interatomic potentials =    100000.000000 Angstroms

  Intramolecular potentials :

--------------------------------------------------------------------------------
Atom  Types   Potential      Parameter       Value         Units   Cutoffs(Ang)
  1     2                                                            Min /  Max 
--------------------------------------------------------------------------------
C    c O    c Morse         Morse  De        6.2880000    eV        0.000 1 Bond
                            Morse  a0        2.0600000    Ang^-1    
                            Morse  r0        1.2300000    Ang       
--------------------------------------------------------------------------------
C    c N    c Morse         Morse  De        4.2060000    eV        0.000 1 Bond
                            Morse  a0        2.0000000    Ang^-1    
                            Morse  r0        1.3200000    Ang       
--------------------------------------------------------------------------------
H    c N    c Morse         Morse  De        3.8160000    eV        0.000 1 Bond
                            Morse  a0        2.2800000    Ang^-1    
                            Morse  r0        1.0260000    Ang       
--------------------------------------------------------------------------------

  Intermolecular potentials :

--------------------------------------------------------------------------------
Atom  Types   Potential      Parameter       Value         Units   Cutoffs(Ang)
  1     2                                                            Min /  Max 
--------------------------------------------------------------------------------
C    c O    c Lennard       Lennard-Jones A  39031.570    eV*Ang^m  0.000 18.000
                            Lennard-Jones B  35.266000    eV*Ang^n  
                            Exponent m        12          None
                            Exponent n         6          None
--------------------------------------------------------------------------------
C    c N    c Lennard       Lennard-Jones A  112494.67    eV*Ang^m  0.000 18.000
                            Lennard-Jones B  55.387000    eV*Ang^n  
                            Exponent m        12          None
                            Exponent n         6          None
--------------------------------------------------------------------------------
O    c O    c Lennard       Lennard-Jones A  11833.864    eV*Ang^m  0.000 18.000
                            Lennard-Jones B  21.633000    eV*Ang^n  
                            Exponent m        12          None
                            Exponent n         6          None
--------------------------------------------------------------------------------
N    c O    c Lennard       Lennard-Jones A  34106.919    eV*Ang^m  0.000 18.000
                            Lennard-Jones B  33.977000    eV*Ang^n  
                            Exponent m        12          None
                            Exponent n         6          None
--------------------------------------------------------------------------------
N    c N    c Lennard       Lennard-Jones A  98301.108    eV*Ang^m  0.000 18.000
                            Lennard-Jones B  53.362000    eV*Ang^n  
                            Exponent m        12          None
                            Exponent n         6          None
--------------------------------------------------------------------------------
C    c C    c Lennard       Lennard-Jones A  128737.61    eV*Ang^m  0.000 18.000
                            Lennard-Jones B  57.488000    eV*Ang^n  
                            Exponent m        12          None
                            Exponent n         6          None
--------------------------------------------------------------------------------

  Intramolecular Three-body potentials :

--------------------------------------------------------------------------------
  Atoms       Potential      Parameter       Value         Units   Cutoffs(Ang)
  1 / 2 / 3                                                          Min /  Max 
--------------------------------------------------------------------------------
C     core    Harmonic      Three-body cnst  5.8970000    eV*rad^-2 0.000 1 Bond
N     core                  Three-body angl  121.00000    degrees   0.000 1 Bond
O     core                  Three-body k4    0.0000000    eV*rad^-4 0.000 1 Bond
                            Three-body k3    0.0000000    eV*rad^-3 
--------------------------------------------------------------------------------
N     core    Harmonic      Three-body cnst  3.2520000    eV*rad^-2 0.000 1 Bond
H     core                  Three-body angl  120.00000    degrees   0.000 1 Bond
C     core                  Three-body k4    0.0000000    eV*rad^-4 0.000 1 Bond
                            Three-body k3    0.0000000    eV*rad^-3 
--------------------------------------------------------------------------------
N     core    Harmonic      Three-body cnst  2.8620000    eV*rad^-2 0.000 1 Bond
H     core                  Three-body angl  120.00000    degrees   0.000 1 Bond
H     core                  Three-body k4    0.0000000    eV*rad^-4 0.000 1 Bond
                            Three-body k3    0.0000000    eV*rad^-3 
--------------------------------------------------------------------------------
C     core    Harmonic      Three-body cnst  8.8460000    eV*rad^-2 0.000 1 Bond
N     core                  Three-body angl  118.00000    degrees   0.000 1 Bond
N     core                  Three-body k4    0.0000000    eV*rad^-4 0.000 1 Bond
                            Three-body k3    0.0000000    eV*rad^-3 
--------------------------------------------------------------------------------

  General Four-body potentials :

--------------------------------------------------------------------------------
  Atoms       Potential      Parameter       Value         Units   Cutoffs(Ang)
  1 - 4                                                             Min /  Max 
--------------------------------------------------------------------------------
O     core    Standard      Torsional const 0.43400000    eV        0.000  1.600
C     core Phase = -  2                                             0.000  1.600
N     core                                                          0.000  3.000
N     core                                                          0.000  0.000
--------------------------------------------------------------------------------

  Intramolecular Four-body potentials :

--------------------------------------------------------------------------------
  Atoms       Potential      Parameter       Value         Units   Cutoffs(Ang)
  1 - 4                                                             Min /  Max 
--------------------------------------------------------------------------------
O     core    Standard      Torsional const 0.26020000    eV         Bonded
C     core Phase = -  2                                                       
N     core                                                              
H     core
--------------------------------------------------------------------------------
N     core    Standard      Torsional const 0.21700000E-02eV         Bonded
C     core Phase = -  2                                                       
N     core                                                              
H     core
--------------------------------------------------------------------------------

********************************************************************************
*  Output for configuration   1                                                *
********************************************************************************


  Total charge on Solvent Accessible Surface =     0.008847
  Dipole in  X on Solvent Accessible Surface =    -0.000003
  Dipole in  Y on Solvent Accessible Surface =     0.000003
  Dipole in  Z on Solvent Accessible Surface =    -0.826278

  Charges on Solvent Accessible Surface :

-------------------------------------------------------------------------------
  Segment    x (Angs)     y (Angs)     z (Angs)       Charge      Weight
-------------------------------------------------------------------------------
       1        4.84723      2.07183      2.88792    0.00447464    0.55969280
       2        0.70359     -2.07182      2.88792    0.00447464    0.55969279
       3        4.62851      1.85309      4.19826    0.00000003    0.00000574
       4        0.92232     -1.85310      4.19826    0.00000003    0.00000574
       5        5.09632      1.74068      3.29820    0.00020094    0.03275121
       6        4.51609      2.32091      3.29821    0.00020094    0.03275127
       7        0.45451     -1.74068      3.29821    0.00020094    0.03275129
       8        1.03473     -2.32090      3.29820    0.00020094    0.03275119
       9        5.09631      1.74069      2.47764    0.00209428    0.27346864
      10        4.51609      2.32091      2.47764    0.00209428    0.27346874
      11        1.03473     -2.32090      2.47764    0.00209428    0.27346858
      12        0.45450     -1.74067      2.47764    0.00209428    0.27346874
      13        4.72702      1.95162      1.65792    0.00025078    0.03543010
      14        0.82379     -1.95161      1.65792    0.00025078    0.03543012
      15        2.77539      0.00002     -1.10208    0.00090731    1.00000000
      16        5.39377      0.87280      1.65792    0.00009333    0.01300522
      17        3.64819      2.61837      1.65793    0.00009333    0.01300518
      18        4.52098      1.74559      0.42361    0.00552583    1.00000000
      19        3.64818      0.87281     -0.81070    0.00308109    1.00000000
      20        1.90262     -2.61836      1.65792    0.00009333    0.01300523
      21        4.52098     -1.74556      0.42360    0.00062760    0.19918854
      22        3.64818     -0.87277     -0.81070    0.00316620    1.00000000
      23        0.15704     -0.87278      1.65793    0.00009333    0.01300519
      24        1.02982      1.74559      0.42363    0.00062760    0.19918741
      25        1.90261      0.87281     -0.81069    0.00316620    1.00000000
      26        1.02982     -1.74556      0.42361    0.00552583    1.00000000
      27        1.90261     -0.87277     -0.81070    0.00308109    1.00000000
      28        5.02893      0.00002      0.06443    0.00562069    1.00000000
      29        2.77540      2.25355      0.06444    0.00562070    1.00000000
      30        2.77540     -2.25352      0.06443    0.00562070    1.00000000
      31        0.52187      0.00002      0.06444    0.00562070    1.00000000
      32        4.96165      1.63970      1.27144    0.00290698    0.45384646
      33        4.47406      1.01921     -0.26390    0.00395736    1.00000000
      34        3.32196      0.00002     -1.04742    0.00220467    1.00000000
      35        5.49326      0.00001      1.17746    0.00043101    0.07977495
      36        4.47406     -1.01918     -0.26391    0.00455632    1.00000000
      37        4.41509      2.18626      1.27145    0.00290698    0.45384637
      38        3.79460      1.69868     -0.26389    0.00395736    1.00000000
      39        2.77539      0.54658     -1.04742    0.00220467    1.00000000
      40        2.77540      2.71787      1.17748    0.00043101    0.07977450
      41        1.75620      1.69868     -0.26388    0.00455632    1.00000000
      42        3.79460     -1.69865     -0.26391    0.00455632    1.00000000
      43        2.77539     -0.54654     -1.04742    0.00220467    1.00000000
      44        2.77540     -2.71785      1.17746    0.00043101    0.07977507
      45        1.75620     -1.69865     -0.26390    0.00395736    1.00000000
      46        1.13572     -2.18624      1.27144    0.00290698    0.45384651
      47        1.07674      1.01921     -0.26388    0.00455632    1.00000000
      48        2.22883      0.00002     -1.04742    0.00220467    1.00000000
      49        0.05754      0.00001      1.17748    0.00043101    0.07977471
      50        1.07674     -1.01918     -0.26389    0.00395736    1.00000000
      51        0.58916     -1.63967      1.27145    0.00290698    0.45384642
      52        5.15353      1.01921      0.69701    0.00698043    0.99346984
      53        4.13433      0.00002     -0.74435    0.00351850    1.00000000
      54        5.15353     -1.01918      0.69700    0.00005923    0.01696636
      55        3.79460      2.37814      0.69702    0.00698043    0.99346982
      56        2.77540      1.35895     -0.74434    0.00351850    1.00000000
      57        1.75620      2.37814      0.69703    0.00005923    0.01696607
      58        3.79460     -2.37811      0.69700    0.00005923    0.01696640
      59        2.77540     -1.35891     -0.74435    0.00351850    1.00000000
      60        1.75620     -2.37811      0.69701    0.00698043    0.99346985
      61        0.39727      1.01921      0.69703    0.00005923    0.01696614
      62        1.41647      0.00002     -0.74434    0.00351850    1.00000000
      63        0.39727     -1.01919      0.69702    0.00698043    0.99346982
      64        5.61194      1.23641      3.56777    0.00157228    0.42259458
      65        1.53901     -2.83653      3.56777    0.00157228    0.42259464
      66        5.39695      1.02140      4.85574   -0.00000800    0.06272398
      67        6.30769      0.11067      3.56776    0.00007731    0.20829786
      68        1.75401     -2.62154      4.85574   -0.00000800    0.06272427
      69        2.66474     -3.53227      3.56776    0.00007731    0.20829829
      70        1.29418     -2.51104      3.97105    0.00082158    0.21780601
      71        5.28645      1.48124      3.97105    0.00082158    0.21780593
      72        5.85678      0.91091      3.16448    0.00251117    0.57757372
      73        1.86450     -3.08136      3.16448    0.00251117    0.57757396
      74        5.85678      0.91091      3.97105    0.00266287    0.97544373
      75        6.41151     -0.80006      4.06910   -0.00000051    0.00017196
      76        1.86450     -3.08136      3.97105    0.00266287    0.97544387
      77        3.57548     -3.63609      4.06910   -0.00000051    0.00017197
      78        1.09396     -1.86358      4.57046    0.00000040    0.00016143
      79        4.63899      1.68146      4.57046    0.00000040    0.00016143
      80        6.05700      0.26345      2.56507    0.00006964    0.02195830
      81        2.51196     -3.28158      2.56507    0.00006964    0.02195843
      82        6.05701      0.26344      4.57045   -0.00042075    0.38326809
      83        2.51197     -3.28159      4.57045   -0.00042075    0.38326873
      84       -0.06112     -1.23640      3.56778    0.00157228    0.42259499
      85        4.01182      2.83653      3.56778    0.00157228    0.42259506
      86        0.15388     -1.02141      4.85576   -0.00000800    0.06272403
      87       -0.75686     -0.11067      3.56779    0.00007731    0.20829853
      88        3.79683      2.62153      4.85576   -0.00000800    0.06272420
      89        2.88609      3.53227      3.56779    0.00007731    0.20829786
      90        4.25665      2.51104      3.97106    0.00082158    0.21780614
      91        0.26438     -1.48124      3.97106    0.00082158    0.21780607
      92       -0.30595     -0.91091      3.16450    0.00251117    0.57757454
      93        3.68632      3.08137      3.16450    0.00251117    0.57757431
      94       -0.30595     -0.91091      3.97106    0.00266287    0.97544379
      95       -0.86068      0.80006      4.06914   -0.00000051    0.00017197
      96        3.68633      3.08136      3.97106    0.00266287    0.97544388
      97        1.97535      3.63609      4.06914   -0.00000051    0.00017196
      98        4.45688      1.86357      4.57046    0.00000040    0.00016143
      99        0.91184     -1.68146      4.57046    0.00000040    0.00016143
     100       -0.50618     -0.26344      2.56510    0.00006964    0.02195845
     101        3.03886      3.28159      2.56510    0.00006964    0.02195827
     102       -0.50617     -0.26345      4.57047   -0.00042075    0.38326797
     103        3.03886      3.28159      4.57047   -0.00042075    0.38326827
     104        5.96363     -3.18821      3.07034   -0.00077790    1.00000000
     105        5.77850     -3.00308      4.17944   -0.00244225    0.65283129
     106        3.42576     -3.78732      3.07035   -0.00017258    0.15593996
     107        4.99425     -3.78732      3.07035   -0.00276083    0.99623328
     108        6.56274     -0.65034      3.07035   -0.00017259    0.15594025
     109        6.56274     -2.21883      3.07035   -0.00276083    0.99623329
     110        4.99424     -2.21883      0.85217    0.00001693    0.98941705
     111        5.77849     -3.00308      1.96126   -0.00210258    1.00000000
     112        4.21001     -3.45951      4.50218   -0.00000001    0.00000153
     113        6.23492     -1.43460      4.50218   -0.00000001    0.00000153
     114        4.21000     -3.45950      1.63852   -0.00137870    0.99677861
     115        6.23491     -1.43458      1.63852   -0.00137870    0.99677863
     116        5.12581     -2.96093      4.79720   -0.00000774    0.00155999
     117        5.68335     -3.39904      3.41761   -0.00244299    0.99761284
     118        4.21001     -3.87673      3.50206   -0.00140517    0.53103111
     119        5.73635     -2.35040      4.79720   -0.00000774    0.00155999
     120        6.17446     -2.90793      3.41761   -0.00244299    0.99761285
     121        6.65214     -1.43459      3.50206   -0.00140517    0.53103142
     122        4.21000     -3.87672      2.63864   -0.00210864    0.93149299
     123        5.68334     -3.39904      2.72308   -0.00174084    1.00000000
     124        3.29420     -2.96092      1.34351    0.00041353    0.16830097
     125        5.12580     -2.96092      1.34350   -0.00181451    1.00000000
     126        6.65214     -1.43459      2.63864   -0.00210864    0.93149313
     127        6.17446     -2.90793      2.72308   -0.00174084    1.00000000
     128        5.73633     -0.51878      1.34351    0.00041353    0.16830124
     129        5.73633     -2.35038      1.34350   -0.00181451    1.00000000
     130        5.12581     -3.57146      3.93377   -0.00255134    0.72737364
     131        6.34688     -2.35039      3.93377   -0.00255134    0.72737378
     132        3.29420     -3.57145      2.20693    0.00008364    0.37424362
     133        5.12580     -3.57145      2.20692   -0.00226504    1.00000000
     134        4.21000     -2.65565      0.91179    0.00066379    0.70316969
     135        6.34687     -0.51879      2.20693    0.00008364    0.37424401
     136        6.34687     -2.35039      2.20692   -0.00226504    1.00000000
     137        5.43106     -1.43458      0.91179    0.00066379    0.70316986
     138       -0.41281      3.18822      3.07040   -0.00077790    1.00000000
     139       -0.22767      3.00308      4.17948   -0.00244225    0.65283091
     140        2.12506      3.78733      3.07039   -0.00017259    0.15594026
     141        0.55657      3.78733      3.07039   -0.00276083    0.99623328
     142       -1.01192      0.65035      3.07039   -0.00017258    0.15593981
     143       -1.01192      2.21884      3.07039   -0.00276083    0.99623326
     144        0.55656      2.21885      0.85221    0.00001693    0.98941737
     145       -0.22768      3.00309      1.96130   -0.00210258    1.00000000
     146        1.34082      3.45950      4.50222   -0.00000001    0.00000153
     147       -0.68409      1.43459      4.50222   -0.00000001    0.00000153
     148        1.34081      3.45951      1.63856   -0.00137870    0.99677864
     149       -0.68410      1.43460      1.63856   -0.00137870    0.99677861
     150        0.42502      2.96092      4.79724   -0.00000774    0.00155997
     151       -0.13252      3.39905      3.41767   -0.00244299    0.99761283
     152        1.34082      3.87673      3.50210   -0.00140517    0.53103127
     153       -0.18551      2.35039      4.79724   -0.00000774    0.00155997
     154       -0.62363      2.90793      3.41767   -0.00244299    0.99761283
     155       -1.10132      1.43459      3.50210   -0.00140517    0.53103079
     156        1.34082      3.87673      2.63868   -0.00210864    0.93149313
     157       -0.13252      3.39905      2.72313   -0.00174084    1.00000000
     158        2.25661      2.96094      1.34353    0.00041353    0.16830218
     159        0.42501      2.96094      1.34354   -0.00181451    1.00000000
     160       -1.10132      1.43460      2.63868   -0.00210864    0.93149292
     161       -0.62364      2.90794      2.72313   -0.00174084    1.00000000
     162       -0.18552      0.51880      1.34353    0.00041353    0.16830173
     163       -0.18552      2.35040      1.34354   -0.00181451    1.00000000
     164        0.42502      3.57146      3.93382   -0.00255134    0.72737351
     165       -0.79605      2.35039      3.93382   -0.00255134    0.72737330
     166        2.25661      3.57147      2.20696    0.00008364    0.37424418
     167        0.42501      3.57147      2.20697   -0.00226504    1.00000000
     168        1.34081      2.65567      0.91182    0.00066379    0.70317175
     169       -0.79605      0.51880      2.20696    0.00008364    0.37424359
     170       -0.79605      2.35040      2.20697   -0.00226504    1.00000000
     171        0.11974      1.43461      0.91182    0.00066379    0.70317146
     172        3.56283     -0.78741      7.07361   -0.00068145    1.00000000
     173        1.99433     -2.35590      5.70270   -0.00066764    0.29802074
     174        2.77858     -1.57165      6.81179   -0.00308295    1.00000000
     175        5.13131     -2.35590      5.70269   -0.00111248    0.25088671
     176        4.34707     -1.57165      6.81179   -0.00271596    1.00000000
     177        5.13131      0.78108      5.70270   -0.00066765    0.29802118
     178        4.34707     -0.00317      6.81179   -0.00308295    1.00000000
     179        3.56282     -2.81232      6.02543   -0.00245597    0.65772802
     180        5.58773     -0.78741      6.02543   -0.00245598    0.65772831
     181        2.64702     -2.31374      6.32046   -0.00285613    0.93118618
     182        3.56283     -1.27852      7.02450   -0.00185566    1.00000000
     183        4.47862     -2.31374      6.32045   -0.00371483    0.91847846
     184        2.03649     -1.70321      6.32047   -0.00383172    0.93898708
     185        3.07171     -0.78741      7.02450   -0.00344373    1.00000000
     186        5.08916     -1.70321      6.32045   -0.00371483    0.91847850
     187        4.05394     -0.78741      7.02450   -0.00185566    1.00000000
     188        5.08916      0.12839      6.32046   -0.00285613    0.93118634
     189        3.56283     -0.29630      7.02450   -0.00344373    1.00000000
     190        4.47862      0.73893      6.32047   -0.00383172    0.93898724
     191        2.64702     -2.92427      5.45703   -0.00016953    0.06658322
     192        3.56283     -2.00848      6.75217   -0.00292970    1.00000000
     193        4.47862     -2.92427      5.45703   -0.00019295    0.04155153
     194        1.42595     -1.70321      5.45704   -0.00002628    0.01171348
     195        2.34176     -0.78741      6.75218   -0.00107725    0.24964572
     196        5.69969     -1.70320      5.45703   -0.00019295    0.04155159
     197        4.78389     -0.78741      6.75217   -0.00292970    1.00000000
     198        5.69969      0.12840      5.45703   -0.00016953    0.06658344
     199        3.56283      0.43366      6.75218   -0.00107725    0.24964598
     200        4.47862      1.34946      5.45704   -0.00002628    0.01171356
     201        1.98803      0.78739      7.07363   -0.00068145    1.00000000
     202        3.55651      2.35588      5.70271   -0.00066764    0.29802084
     203        2.77227      1.57163      6.81180   -0.00308295    1.00000000
     204        0.41953      2.35588      5.70273   -0.00111249    0.25088730
     205        1.20378      1.57163      6.81181   -0.00271596    1.00000000
     206        0.41953     -0.78110      5.70272   -0.00066764    0.29802110
     207        1.20378      0.00314      6.81180   -0.00308295    1.00000000
     208        1.98802      2.81230      6.02546   -0.00245598    0.65772846
     209       -0.03689      0.78739      6.02546   -0.00245598    0.65772864
     210        2.90383      2.31372      6.32048   -0.00285613    0.93118627
     211        1.98803      1.27850      7.02451   -0.00185566    1.00000000
     212        1.07223      2.31372      6.32049   -0.00371483    0.91847871
     213        3.51436      1.70319      6.32047   -0.00383172    0.93898707
     214        2.47914      0.78739      7.02451   -0.00344373    1.00000000
     215        0.46169      1.70319      6.32049   -0.00371483    0.91847873
     216        1.49692      0.78739      7.02451   -0.00185566    1.00000000
     217        0.46169     -0.12841      6.32048   -0.00285613    0.93118637
     218        1.98803      0.29627      7.02451   -0.00344373    1.00000000
     219        1.07223     -0.73895      6.32047   -0.00383172    0.93898716
     220        2.90382      2.92426      5.45706   -0.00016953    0.06658338
     221        1.98803      2.00845      6.75219   -0.00292970    1.00000000
     222        1.07222      2.92426      5.45706   -0.00019295    0.04155177
     223        4.12489      1.70319      5.45705   -0.00002628    0.01171345
     224        3.20910      0.78739      6.75218   -0.00107725    0.24964499
     225       -0.14885      1.70319      5.45706   -0.00019295    0.04155183
     226        0.76696      0.78739      6.75219   -0.00292970    1.00000000
     227       -0.14885     -0.12841      5.45706   -0.00016953    0.06658351
     228        1.98803     -0.43368      6.75218   -0.00107725    0.24964525
     229        1.07222     -1.34948      5.45705   -0.00002628    0.01171351
-------------------------------------------------------------------------------
    Total                                           -0.00000000
-------------------------------------------------------------------------------


  Components of energy : 

--------------------------------------------------------------------------------
  Interatomic potentials     =         -29.96400000 eV    
  Three-body potentials      =           0.00000000 eV    
  Four-body potentials       =           0.00000000 eV    
  Improper torsions          =           0.00000000 eV    
  Out of plane potentials    =           0.00000000 eV    
  Monopole - monopole (real) =           0.00000000 eV    
  Solvation energy           =          -0.10917016 eV    
--------------------------------------------------------------------------------
  Total lattice energy       =         -30.07317016 eV    
--------------------------------------------------------------------------------
  Total lattice energy       =           -2901.6012 kJ/mol
--------------------------------------------------------------------------------



  Final Cartesian derivatives :

--------------------------------------------------------------------------------
   No.  Atomic          x             y             z           Radius
        Label       (eV/Angs)     (eV/Angs)    (eV/Angs)      (eV/Angs)
--------------------------------------------------------------------------------
      1 C     c       0.000000      0.000000      0.000000      0.000000
      2 O     c      -0.000000      0.000000      0.044754      0.000000
      3 N     c       0.029550     -0.029550      0.143092      0.000000
      4 N     c      -0.029555      0.029555      0.143097      0.000000
      5 H     c      -0.028996      0.028996     -0.060027      0.000000
      6 H     c       0.028996     -0.028996     -0.060027      0.000000
      7 H     c      -0.006312      0.006312     -0.069076      0.000000
      8 H     c       0.006312     -0.006312     -0.069076      0.000000
--------------------------------------------------------------------------------
  Maximum abs         0.029555      0.029555      0.143097      0.000000
--------------------------------------------------------------------------------


  Time to end of gradients =       0.0394 seconds


  Peak dynamic memory used =       3.69 MB 


  Timing analysis for GULP :

--------------------------------------------------------------------------------
  Task / Subroutine                                          Time (Seconds)
--------------------------------------------------------------------------------
  Calculation of COSMIC solvation energy                          0.0091
  Calculation of COSMIC solvation derivatives                     0.0233
  Calculation of matrix inversion                                 0.0037
--------------------------------------------------------------------------------
  Total CPU time                                                  0.0394
--------------------------------------------------------------------------------


  Dump file written as example41.res


  Job Finished at 11:50.31  8th July       2020                               

