********************************************************************************
*                       GENERAL UTILITY LATTICE PROGRAM                        *
*                                 Julian Gale                                  *
*                       Curtin Institute for Computation                       *
*                    School of Molecular and Life Sciences                     *
*                    Curtin University, Western Australia                      *
********************************************************************************
* Version = 6.0.0 * Last modified =   7th July 2020                            *
********************************************************************************
*  gradient     - perform gradient run                                         *
*  conp         - constant pressure calculation                                *
********************************************************************************

  Job Started  at 11:50.31  8th July       2020                               

  Number of CPUs =     1

  Host name      = M-A0034725                              


  Total number of configurations input =      1

********************************************************************************
*  Input for Configuration =   1                                               *
********************************************************************************

  Formula = OH2                                                         

  Number of irreducible atoms/shells =       3


  Total number atoms/shells =       3

  Dimensionality = 0               :  Cluster


  Charge on cluster =   0.800000


  Initial cluster dipoles : x =      0.200000 e.Angs
                            y =      0.320000 e.Angs
                            z =      0.000000 e.Angs

  Temperature of configuration =   0.00     K 

  Symmetry number =      1

  Cartesian coordinates of cluster :

--------------------------------------------------------------------------------
   No.  Atomic       x           y          z         Charge      Occupancy
        Label      (Angs)      (Angs)     (Angs)        (e)         (Frac)  
--------------------------------------------------------------------------------
      1 O     c      0.0000      0.0000      0.0000    -0.00000    1.000000    
      2 H     c      1.0000 *    0.0000 *    0.0000 *   0.40000    1.000000    
      3 H     c     -0.5000 *    0.8000 *    0.0000 *   0.40000    1.000000    
--------------------------------------------------------------------------------



********************************************************************************
*  General input information                                                   *
********************************************************************************

  Species output for all configurations : 

--------------------------------------------------------------------------------
  Species    Type    Atomic    Atomic    Charge       Radii (Angs)     Library
                     Number     Mass       (e)     Cova   Ionic  VDW   Symbol
--------------------------------------------------------------------------------
    O        Core        8      16.00  -0.000000   0.730  0.000  1.360          
    H        Core        1       1.01   0.400000   0.370  0.000  1.080          
--------------------------------------------------------------------------------


  Accuracy factor for short range sums = 12.000

  Electrostatics method = Direct Coulomb

  Analytic derivatives to be used

  Time limit = Infinity

  General Three-body potentials :

--------------------------------------------------------------------------------
  Atoms       Potential      Parameter       Value         Units   Cutoffs(Ang)
  1 / 2 / 3                                                          Min /  Max 
--------------------------------------------------------------------------------
O     core    3-Coulomb     Three-body Qsub 0.50000000    None      0.000  1.200
H     core                                                          0.000  1.200
H     core                                                          0.000  2.400
--------------------------------------------------------------------------------

********************************************************************************
*  Output for configuration   1                                                *
********************************************************************************


  Components of energy : 

--------------------------------------------------------------------------------
  Interatomic potentials     =           0.00000000 eV    
  Three-body potentials      =          -0.67763569 eV    
  Monopole - monopole (real) =           1.35527138 eV    
--------------------------------------------------------------------------------
  Total lattice energy       =           0.67763569 eV    
--------------------------------------------------------------------------------
  Total lattice energy       =              65.3815 kJ/mol
--------------------------------------------------------------------------------



  Final Cartesian derivatives :

--------------------------------------------------------------------------------
   No.  Atomic          x             y             z           Radius
        Label       (eV/Angs)     (eV/Angs)    (eV/Angs)      (eV/Angs)
--------------------------------------------------------------------------------
      1 O     c       0.000000      0.000000      0.000000      0.000000
      2 H     c      -0.351714      0.187581      0.000000      0.000000
      3 H     c       0.351714     -0.187581      0.000000      0.000000
--------------------------------------------------------------------------------
  Maximum abs         0.351714      0.187581      0.000000      0.000000
--------------------------------------------------------------------------------


  Time to end of gradients =       0.0060 seconds


  Peak dynamic memory used =       1.78 MB 


  Timing analysis for GULP :

--------------------------------------------------------------------------------
  Task / Subroutine                                          Time (Seconds)
--------------------------------------------------------------------------------
--------------------------------------------------------------------------------
  Total CPU time                                                  0.0060
--------------------------------------------------------------------------------


  Dump file written as example40.grs


  Job Finished at 11:50.31  8th July       2020                               

