********************************************************************************
*                       GENERAL UTILITY LATTICE PROGRAM                        *
*                                 Julian Gale                                  *
*                       Curtin Institute for Computation                       *
*                    School of Molecular and Life Sciences                     *
*                    Curtin University, Western Australia                      *
********************************************************************************
* Version = 6.0.0 * Last modified =   7th July 2020                            *
********************************************************************************
*  single       - perform a single point run                                   *
*  montecarlo   - perform a Monte Carlo run                                    *
*  conv         - constant volume calculation                                  *
*  nosymmetry   - turn off symmetry after initial structure generation         *
*  full         - generate full unit cell when symmetry is removed             *
********************************************************************************

  Job Started  at 11:59.17  8th July       2020                               

  Number of CPUs =     1

  Host name      = M-A0034725                              


  Total number of configurations input =      1

********************************************************************************
*  Input for Configuration =   1                                               *
********************************************************************************

  Formula = Si72Ge24O128S64                                             

  Number of irreducible atoms/shells =     288


  Total number atoms/shells =     288

  Dimensionality = 3               :  Bulk   



  Cartesian lattice vectors (Angstroms) :

       20.073614    0.000000    0.000000
        0.000000   19.692667    0.000000
        0.000000    0.000000   13.344911

  Cell parameters (Angstroms/Degrees):

  a =      20.0736    alpha =  90.0000
  b =      19.6927    beta  =  90.0000
  c =      13.3449    gamma =  90.0000

  Initial cell volume =        5275.283300 Angs**3

  Temperature of configuration =   300.     K 

  Pressure of configuration =         0.000 GPa 

  Fractional coordinates of asymmetric unit :

--------------------------------------------------------------------------------
   No.  Atomic       x           y          z         Charge      Occupancy
        Label      (Frac)      (Frac)     (Frac)        (e)         (Frac)  
--------------------------------------------------------------------------------
      1 Si    c    0.424463    0.058365    0.669921     4.00000    1.000000    
      2 Si    c    0.075537 *  0.941635 *  0.169921 *   4.00000    1.000000    
      3 Si    c    0.924463 *  0.441635 *  0.830079 *   4.00000    1.000000    
      4 Si    c    0.575537 *  0.558365 *  0.330079 *   4.00000    1.000000    
      5 Si    c    0.575537 *  0.941635 *  0.330079 *   4.00000    1.000000    
      6 Si    c    0.924463 *  0.058365 *  0.830079 *   4.00000    1.000000    
      7 Si    c    0.075537 *  0.558365 *  0.169921 *   4.00000    1.000000    
      8 Si    c    0.424463 *  0.441635 *  0.669921 *   4.00000    1.000000    
      9 Ge    c    0.311897 *  0.029908 *  0.818062 *   4.00000    1.000000    
     10 Ge    c    0.188103 *  0.970092 *  0.318062 *   4.00000    1.000000    
     11 Ge    c    0.811897 *  0.470092 *  0.681938 *   4.00000    1.000000    
     12 Ge    c    0.688103 *  0.529908 *  0.181938 *   4.00000    1.000000    
     13 Ge    c    0.688103 *  0.970092 *  0.181938 *   4.00000    1.000000    
     14 Ge    c    0.811897 *  0.029908 *  0.681938 *   4.00000    1.000000    
     15 Ge    c    0.188103 *  0.529908 *  0.318062 *   4.00000    1.000000    
     16 Ge    c    0.311897 *  0.470092 *  0.818062 *   4.00000    1.000000    
     17 Si    c    0.278691 *  0.055631 *  0.038762 *   4.00000    1.000000    
     18 Si    c    0.221309 *  0.944369 *  0.538762 *   4.00000    1.000000    
     19 Si    c    0.778691 *  0.444369 *  0.461238 *   4.00000    1.000000    
     20 Si    c    0.721309 *  0.555631 *  0.961238 *   4.00000    1.000000    
     21 Si    c    0.721309 *  0.944369 *  0.961238 *   4.00000    1.000000    
     22 Si    c    0.778691 *  0.055631 *  0.461238 *   4.00000    1.000000    
     23 Si    c    0.221309 *  0.555631 *  0.538762 *   4.00000    1.000000    
     24 Si    c    0.278691 *  0.444369 *  0.038762 *   4.00000    1.000000    
     25 Si    c    0.122787 *  0.063798 *  0.032235 *   4.00000    1.000000    
     26 Si    c    0.377213 *  0.936202 *  0.532235 *   4.00000    1.000000    
     27 Si    c    0.622787 *  0.436202 *  0.467765 *   4.00000    1.000000    
     28 Si    c    0.877213 *  0.563798 *  0.967765 *   4.00000    1.000000    
     29 Si    c    0.877213 *  0.936202 *  0.967765 *   4.00000    1.000000    
     30 Si    c    0.622787 *  0.063798 *  0.467765 *   4.00000    1.000000    
     31 Si    c    0.377213 *  0.563798 *  0.532235 *   4.00000    1.000000    
     32 Si    c    0.122787 *  0.436202 *  0.032235 *   4.00000    1.000000    
     33 Si    c    0.072734 *  0.031849 *  0.819483 *   4.00000    1.000000    
     34 Si    c    0.427266 *  0.968151 *  0.319483 *   4.00000    1.000000    
     35 Si    c    0.572734 *  0.468151 *  0.680517 *   4.00000    1.000000    
     36 Si    c    0.927266 *  0.531849 *  0.180517 *   4.00000    1.000000    
     37 Si    c    0.927266 *  0.968151 *  0.180517 *   4.00000    1.000000    
     38 Si    c    0.572734 *  0.031849 *  0.680517 *   4.00000    1.000000    
     39 Si    c    0.427266 *  0.531849 *  0.319483 *   4.00000    1.000000    
     40 Si    c    0.072734 *  0.468151 *  0.819483 *   4.00000    1.000000    
     41 Si    c    0.191569 *  0.066187 *  0.687539 *   4.00000    1.000000    
     42 Si    c    0.308431 *  0.933813 *  0.187539 *   4.00000    1.000000    
     43 Si    c    0.691569 *  0.433813 *  0.812461 *   4.00000    1.000000    
     44 Si    c    0.808431 *  0.566187 *  0.312461 *   4.00000    1.000000    
     45 Si    c    0.808431 *  0.933813 *  0.312461 *   4.00000    1.000000    
     46 Si    c    0.691569 *  0.066187 *  0.812461 *   4.00000    1.000000    
     47 Si    c    0.308431 *  0.566187 *  0.187539 *   4.00000    1.000000    
     48 Si    c    0.191569 *  0.433813 *  0.687539 *   4.00000    1.000000    
     49 Ge    c    0.423881 *  0.828306 *  0.682134 *   4.00000    1.000000    
     50 Ge    c    0.076119 *  0.171694 *  0.182134 *   4.00000    1.000000    
     51 Ge    c    0.923881 *  0.671694 *  0.817866 *   4.00000    1.000000    
     52 Ge    c    0.576119 *  0.328306 *  0.317866 *   4.00000    1.000000    
     53 Ge    c    0.576119 *  0.171694 *  0.317866 *   4.00000    1.000000    
     54 Ge    c    0.923881 *  0.828306 *  0.817866 *   4.00000    1.000000    
     55 Ge    c    0.076119 *  0.328306 *  0.182134 *   4.00000    1.000000    
     56 Ge    c    0.423881 *  0.671694 *  0.682134 *   4.00000    1.000000    
     57 Si    c    0.308315 *  0.871148 *  0.817612 *   4.00000    1.000000    
     58 Si    c    0.191685 *  0.128852 *  0.317612 *   4.00000    1.000000    
     59 Si    c    0.808315 *  0.628852 *  0.682388 *   4.00000    1.000000    
     60 Si    c    0.691685 *  0.371148 *  0.182388 *   4.00000    1.000000    
     61 Si    c    0.691685 *  0.128852 *  0.182388 *   4.00000    1.000000    
     62 Si    c    0.808315 *  0.871148 *  0.682388 *   4.00000    1.000000    
     63 Si    c    0.191685 *  0.371148 *  0.317612 *   4.00000    1.000000    
     64 Si    c    0.308315 *  0.628852 *  0.817612 *   4.00000    1.000000    
     65 Si    c    0.269065 *  0.829914 *  0.031137 *   4.00000    1.000000    
     66 Si    c    0.230935 *  0.170086 *  0.531137 *   4.00000    1.000000    
     67 Si    c    0.769065 *  0.670086 *  0.468863 *   4.00000    1.000000    
     68 Si    c    0.730935 *  0.329914 *  0.968863 *   4.00000    1.000000    
     69 Si    c    0.730935 *  0.170086 *  0.968863 *   4.00000    1.000000    
     70 Si    c    0.769065 *  0.829914 *  0.468863 *   4.00000    1.000000    
     71 Si    c    0.230935 *  0.329914 *  0.531137 *   4.00000    1.000000    
     72 Si    c    0.269065 *  0.670086 *  0.031137 *   4.00000    1.000000    
     73 Ge    c    0.116012 *  0.827619 *  0.027295 *   4.00000    1.000000    
     74 Ge    c    0.383988 *  0.172381 *  0.527295 *   4.00000    1.000000    
     75 Ge    c    0.616012 *  0.672381 *  0.472705 *   4.00000    1.000000    
     76 Ge    c    0.883988 *  0.327619 *  0.972705 *   4.00000    1.000000    
     77 Ge    c    0.883988 *  0.172381 *  0.972705 *   4.00000    1.000000    
     78 Ge    c    0.616012 *  0.827619 *  0.472705 *   4.00000    1.000000    
     79 Ge    c    0.383988 *  0.327619 *  0.527295 *   4.00000    1.000000    
     80 Ge    c    0.116012 *  0.672381 *  0.027295 *   4.00000    1.000000    
     81 Si    c    0.070001 *  0.873565 *  0.815597 *   4.00000    1.000000    
     82 Si    c    0.429999 *  0.126435 *  0.315597 *   4.00000    1.000000    
     83 Si    c    0.570001 *  0.626435 *  0.684403 *   4.00000    1.000000    
     84 Si    c    0.929999 *  0.373565 *  0.184403 *   4.00000    1.000000    
     85 Si    c    0.929999 *  0.126435 *  0.184403 *   4.00000    1.000000    
     86 Si    c    0.570001 *  0.873565 *  0.684403 *   4.00000    1.000000    
     87 Si    c    0.429999 *  0.373565 *  0.315597 *   4.00000    1.000000    
     88 Si    c    0.070001 *  0.626435 *  0.815597 *   4.00000    1.000000    
     89 Si    c    0.187595 *  0.827437 *  0.683411 *   4.00000    1.000000    
     90 Si    c    0.312405 *  0.172563 *  0.183411 *   4.00000    1.000000    
     91 Si    c    0.687595 *  0.672563 *  0.816589 *   4.00000    1.000000    
     92 Si    c    0.812405 *  0.327437 *  0.316589 *   4.00000    1.000000    
     93 Si    c    0.812405 *  0.172563 *  0.316589 *   4.00000    1.000000    
     94 Si    c    0.687595 *  0.827437 *  0.816589 *   4.00000    1.000000    
     95 Si    c    0.312405 *  0.327437 *  0.183411 *   4.00000    1.000000    
     96 Si    c    0.187595 *  0.672563 *  0.683411 *   4.00000    1.000000    
     97 O     c    0.375015 *  0.063287 *  0.763780 *  -2.00000    1.000000    
     98 O     c    0.124985 *  0.936713 *  0.263780 *  -2.00000    1.000000    
     99 O     c    0.875015 *  0.436713 *  0.736220 *  -2.00000    1.000000    
    100 O     c    0.624985 *  0.563287 *  0.236220 *  -2.00000    1.000000    
    101 O     c    0.624985 *  0.936713 *  0.236220 *  -2.00000    1.000000    
    102 O     c    0.875015 *  0.063287 *  0.736220 *  -2.00000    1.000000    
    103 O     c    0.124985 *  0.563287 *  0.263780 *  -2.00000    1.000000    
    104 O     c    0.375015 *  0.436713 *  0.763780 *  -2.00000    1.000000    
    105 O     c    0.318430 *  0.044905 *  0.935632 *  -2.00000    1.000000    
    106 O     c    0.181570 *  0.955095 *  0.435632 *  -2.00000    1.000000    
    107 O     c    0.818430 *  0.455095 *  0.564368 *  -2.00000    1.000000    
    108 O     c    0.681570 *  0.544905 *  0.064368 *  -2.00000    1.000000    
    109 O     c    0.681570 *  0.955095 *  0.064368 *  -2.00000    1.000000    
    110 O     c    0.818430 *  0.044905 *  0.564368 *  -2.00000    1.000000    
    111 O     c    0.181570 *  0.544905 *  0.435632 *  -2.00000    1.000000    
    112 O     c    0.318430 *  0.455095 *  0.935632 *  -2.00000    1.000000    
    113 O     c    0.200658 *  0.052314 *  0.016581 *  -2.00000    1.000000    
    114 O     c    0.299342 *  0.947686 *  0.516581 *  -2.00000    1.000000    
    115 O     c    0.700658 *  0.447686 *  0.483419 *  -2.00000    1.000000    
    116 O     c    0.799342 *  0.552314 *  0.983419 *  -2.00000    1.000000    
    117 O     c    0.799342 *  0.947686 *  0.983419 *  -2.00000    1.000000    
    118 O     c    0.700658 *  0.052314 *  0.483419 *  -2.00000    1.000000    
    119 O     c    0.299342 *  0.552314 *  0.516581 *  -2.00000    1.000000    
    120 O     c    0.200658 *  0.447686 *  0.016581 *  -2.00000    1.000000    
    121 O     c    0.086241 *  0.066474 *  0.926121 *  -2.00000    1.000000    
    122 O     c    0.413759 *  0.933526 *  0.426121 *  -2.00000    1.000000    
    123 O     c    0.586241 *  0.433526 *  0.573879 *  -2.00000    1.000000    
    124 O     c    0.913759 *  0.566474 *  0.073879 *  -2.00000    1.000000    
    125 O     c    0.913759 *  0.933526 *  0.073879 *  -2.00000    1.000000    
    126 O     c    0.586241 *  0.066474 *  0.573879 *  -2.00000    1.000000    
    127 O     c    0.413759 *  0.566474 *  0.426121 *  -2.00000    1.000000    
    128 O     c    0.086241 *  0.433526 *  0.926121 *  -2.00000    1.000000    
    129 O     c    0.118293 *  0.064537 *  0.733966 *  -2.00000    1.000000    
    130 O     c    0.381707 *  0.935463 *  0.233966 *  -2.00000    1.000000    
    131 O     c    0.618293 *  0.435463 *  0.766034 *  -2.00000    1.000000    
    132 O     c    0.881707 *  0.564537 *  0.266034 *  -2.00000    1.000000    
    133 O     c    0.881707 *  0.935463 *  0.266034 *  -2.00000    1.000000    
    134 O     c    0.618293 *  0.064537 *  0.766034 *  -2.00000    1.000000    
    135 O     c    0.381707 *  0.564537 *  0.233966 *  -2.00000    1.000000    
    136 O     c    0.118293 *  0.435463 *  0.733966 *  -2.00000    1.000000    
    137 O     c    0.244633 *  0.063598 *  0.777200 *  -2.00000    1.000000    
    138 O     c    0.255367 *  0.936402 *  0.277200 *  -2.00000    1.000000    
    139 O     c    0.744633 *  0.436402 *  0.722800 *  -2.00000    1.000000    
    140 O     c    0.755367 *  0.563598 *  0.222800 *  -2.00000    1.000000    
    141 O     c    0.755367 *  0.936402 *  0.222800 *  -2.00000    1.000000    
    142 O     c    0.744633 *  0.063598 *  0.722800 *  -2.00000    1.000000    
    143 O     c    0.255367 *  0.563598 *  0.277200 *  -2.00000    1.000000    
    144 O     c    0.244633 *  0.436402 *  0.777200 *  -2.00000    1.000000    
    145 O     c    0.373834 *  0.834898 *  0.775253 *  -2.00000    1.000000    
    146 O     c    0.126166 *  0.165102 *  0.275253 *  -2.00000    1.000000    
    147 O     c    0.873834 *  0.665102 *  0.724747 *  -2.00000    1.000000    
    148 O     c    0.626166 *  0.334898 *  0.224747 *  -2.00000    1.000000    
    149 O     c    0.626166 *  0.165102 *  0.224747 *  -2.00000    1.000000    
    150 O     c    0.873834 *  0.834898 *  0.724747 *  -2.00000    1.000000    
    151 O     c    0.126166 *  0.334898 *  0.275253 *  -2.00000    1.000000    
    152 O     c    0.373834 *  0.665102 *  0.775253 *  -2.00000    1.000000    
    153 O     c    0.308024 *  0.858648 *  0.935614 *  -2.00000    1.000000    
    154 O     c    0.191976 *  0.141352 *  0.435614 *  -2.00000    1.000000    
    155 O     c    0.808024 *  0.641352 *  0.564386 *  -2.00000    1.000000    
    156 O     c    0.691976 *  0.358648 *  0.064386 *  -2.00000    1.000000    
    157 O     c    0.691976 *  0.141352 *  0.064386 *  -2.00000    1.000000    
    158 O     c    0.808024 *  0.858648 *  0.564386 *  -2.00000    1.000000    
    159 O     c    0.191976 *  0.358648 *  0.435614 *  -2.00000    1.000000    
    160 O     c    0.308024 *  0.641352 *  0.935614 *  -2.00000    1.000000    
    161 O     c    0.192319 *  0.852321 *  0.021832 *  -2.00000    1.000000    
    162 O     c    0.307681 *  0.147679 *  0.521832 *  -2.00000    1.000000    
    163 O     c    0.692319 *  0.647679 *  0.478168 *  -2.00000    1.000000    
    164 O     c    0.807681 *  0.352321 *  0.978168 *  -2.00000    1.000000    
    165 O     c    0.807681 *  0.147679 *  0.978168 *  -2.00000    1.000000    
    166 O     c    0.692319 *  0.852321 *  0.478168 *  -2.00000    1.000000    
    167 O     c    0.307681 *  0.352321 *  0.521832 *  -2.00000    1.000000    
    168 O     c    0.192319 *  0.647679 *  0.021832 *  -2.00000    1.000000    
    169 O     c    0.082887 *  0.834986 *  0.919131 *  -2.00000    1.000000    
    170 O     c    0.417113 *  0.165014 *  0.419131 *  -2.00000    1.000000    
    171 O     c    0.582887 *  0.665014 *  0.580869 *  -2.00000    1.000000    
    172 O     c    0.917113 *  0.334986 *  0.080869 *  -2.00000    1.000000    
    173 O     c    0.917113 *  0.165014 *  0.080869 *  -2.00000    1.000000    
    174 O     c    0.582887 *  0.834986 *  0.580869 *  -2.00000    1.000000    
    175 O     c    0.417113 *  0.334986 *  0.419131 *  -2.00000    1.000000    
    176 O     c    0.082887 *  0.665014 *  0.919131 *  -2.00000    1.000000    
    177 O     c    0.114888 *  0.842344 *  0.727929 *  -2.00000    1.000000    
    178 O     c    0.385112 *  0.157656 *  0.227929 *  -2.00000    1.000000    
    179 O     c    0.614888 *  0.657656 *  0.772071 *  -2.00000    1.000000    
    180 O     c    0.885112 *  0.342344 *  0.272071 *  -2.00000    1.000000    
    181 O     c    0.885112 *  0.157656 *  0.272071 *  -2.00000    1.000000    
    182 O     c    0.614888 *  0.842344 *  0.772071 *  -2.00000    1.000000    
    183 O     c    0.385112 *  0.342344 *  0.227929 *  -2.00000    1.000000    
    184 O     c    0.114888 *  0.657656 *  0.727929 *  -2.00000    1.000000    
    185 O     c    0.242024 *  0.839841 *  0.769517 *  -2.00000    1.000000    
    186 O     c    0.257976 *  0.160159 *  0.269517 *  -2.00000    1.000000    
    187 O     c    0.742024 *  0.660159 *  0.730483 *  -2.00000    1.000000    
    188 O     c    0.757976 *  0.339841 *  0.230483 *  -2.00000    1.000000    
    189 O     c    0.757976 *  0.160159 *  0.230483 *  -2.00000    1.000000    
    190 O     c    0.742024 *  0.839841 *  0.730483 *  -2.00000    1.000000    
    191 O     c    0.257976 *  0.339841 *  0.269517 *  -2.00000    1.000000    
    192 O     c    0.242024 *  0.660159 *  0.769517 *  -2.00000    1.000000    
    193 O     c    0.310818 *  0.950402 *  0.792138 *  -2.00000    1.000000    
    194 O     c    0.189182 *  0.049598 *  0.292138 *  -2.00000    1.000000    
    195 O     c    0.810818 *  0.549598 *  0.707862 *  -2.00000    1.000000    
    196 O     c    0.689182 *  0.450402 *  0.207862 *  -2.00000    1.000000    
    197 O     c    0.689182 *  0.049598 *  0.207862 *  -2.00000    1.000000    
    198 O     c    0.810818 *  0.950402 *  0.707862 *  -2.00000    1.000000    
    199 O     c    0.189182 *  0.450402 *  0.292138 *  -2.00000    1.000000    
    200 O     c    0.310818 *  0.549598 *  0.792138 *  -2.00000    1.000000    
    201 O     c    0.087899 *  0.952171 *  0.828656 *  -2.00000    1.000000    
    202 O     c    0.412101 *  0.047829 *  0.328656 *  -2.00000    1.000000    
    203 O     c    0.587899 *  0.547829 *  0.671344 *  -2.00000    1.000000    
    204 O     c    0.912101 *  0.452171 *  0.171344 *  -2.00000    1.000000    
    205 O     c    0.912101 *  0.047829 *  0.171344 *  -2.00000    1.000000    
    206 O     c    0.587899 *  0.952171 *  0.671344 *  -2.00000    1.000000    
    207 O     c    0.412101 *  0.452171 *  0.328656 *  -2.00000    1.000000    
    208 O     c    0.087899 *  0.547829 *  0.828656 *  -2.00000    1.000000    
    209 O     c    0.422999 *  0.128342 *  0.608778 *  -2.00000    1.000000    
    210 O     c    0.077001 *  0.871658 *  0.108778 *  -2.00000    1.000000    
    211 O     c    0.922999 *  0.371658 *  0.891222 *  -2.00000    1.000000    
    212 O     c    0.577001 *  0.628342 *  0.391222 *  -2.00000    1.000000    
    213 O     c    0.577001 *  0.871658 *  0.391222 *  -2.00000    1.000000    
    214 O     c    0.922999 *  0.128342 *  0.891222 *  -2.00000    1.000000    
    215 O     c    0.077001 *  0.628342 *  0.108778 *  -2.00000    1.000000    
    216 O     c    0.422999 *  0.371658 *  0.608778 *  -2.00000    1.000000    
    217 O     c    0.406818 *  0.997103 *  0.596620 *  -2.00000    1.000000    
    218 O     c    0.093182 *  0.002897 *  0.096620 *  -2.00000    1.000000    
    219 O     c    0.906818 *  0.502897 *  0.903380 *  -2.00000    1.000000    
    220 O     c    0.593182 *  0.497103 *  0.403380 *  -2.00000    1.000000    
    221 O     c    0.593182 *  0.002897 *  0.403380 *  -2.00000    1.000000    
    222 O     c    0.906818 *  0.997103 *  0.903380 *  -2.00000    1.000000    
    223 O     c    0.093182 *  0.497103 *  0.096620 *  -2.00000    1.000000    
    224 O     c    0.406818 *  0.502897 *  0.596620 *  -2.00000    1.000000    
    225 S     c    0.391483 *  0.864851 *  0.586036 *  -2.00000    1.000000    
    226 S     c    0.108517 *  0.135149 *  0.086036 *  -2.00000    1.000000    
    227 S     c    0.891483 *  0.635149 *  0.913964 *  -2.00000    1.000000    
    228 S     c    0.608517 *  0.364851 *  0.413964 *  -2.00000    1.000000    
    229 S     c    0.608517 *  0.135149 *  0.413964 *  -2.00000    1.000000    
    230 S     c    0.891483 *  0.864851 *  0.913964 *  -2.00000    1.000000    
    231 S     c    0.108517 *  0.364851 *  0.086036 *  -2.00000    1.000000    
    232 S     c    0.391483 *  0.635149 *  0.586036 *  -2.00000    1.000000    
    233 S     c    0.199164 *  0.136960 *  0.629559 *  -2.00000    1.000000    
    234 S     c    0.300836 *  0.863040 *  0.129559 *  -2.00000    1.000000    
    235 S     c    0.699164 *  0.363040 *  0.870441 *  -2.00000    1.000000    
    236 S     c    0.800836 *  0.636960 *  0.370441 *  -2.00000    1.000000    
    237 S     c    0.800836 *  0.863040 *  0.370441 *  -2.00000    1.000000    
    238 S     c    0.699164 *  0.136960 *  0.870441 *  -2.00000    1.000000    
    239 S     c    0.300836 *  0.636960 *  0.129559 *  -2.00000    1.000000    
    240 S     c    0.199164 *  0.363040 *  0.629559 *  -2.00000    1.000000    
    241 S     c    0.201446 *  0.003702 *  0.613389 *  -2.00000    1.000000    
    242 S     c    0.298554 *  0.996298 *  0.113389 *  -2.00000    1.000000    
    243 S     c    0.701446 *  0.496298 *  0.886611 *  -2.00000    1.000000    
    244 S     c    0.798554 *  0.503702 *  0.386611 *  -2.00000    1.000000    
    245 S     c    0.798554 *  0.996298 *  0.386611 *  -2.00000    1.000000    
    246 S     c    0.701446 *  0.003702 *  0.886611 *  -2.00000    1.000000    
    247 S     c    0.298554 *  0.503702 *  0.113389 *  -2.00000    1.000000    
    248 S     c    0.201446 *  0.496298 *  0.613389 *  -2.00000    1.000000    
    249 S     c    0.200988 *  0.872439 *  0.585556 *  -2.00000    1.000000    
    250 S     c    0.299012 *  0.127561 *  0.085556 *  -2.00000    1.000000    
    251 S     c    0.700988 *  0.627561 *  0.914444 *  -2.00000    1.000000    
    252 S     c    0.799012 *  0.372439 *  0.414444 *  -2.00000    1.000000    
    253 S     c    0.799012 *  0.127561 *  0.414444 *  -2.00000    1.000000    
    254 S     c    0.700988 *  0.872439 *  0.914444 *  -2.00000    1.000000    
    255 S     c    0.299012 *  0.372439 *  0.085556 *  -2.00000    1.000000    
    256 S     c    0.200988 *  0.627561 *  0.585556 *  -2.00000    1.000000    
    257 S     c    0.997669 *  0.046742 *  0.785987 *  -2.00000    1.000000    
    258 S     c    0.502331 *  0.953258 *  0.285987 *  -2.00000    1.000000    
    259 S     c    0.497669 *  0.453258 *  0.714013 *  -2.00000    1.000000    
    260 S     c    0.002331 *  0.546742 *  0.214013 *  -2.00000    1.000000    
    261 S     c    0.002331 *  0.953258 *  0.214013 *  -2.00000    1.000000    
    262 S     c    0.497669 *  0.046742 *  0.714013 *  -2.00000    1.000000    
    263 S     c    0.502331 *  0.546742 *  0.285987 *  -2.00000    1.000000    
    264 S     c    0.997669 *  0.453258 *  0.785987 *  -2.00000    1.000000    
    265 S     c    0.993179 *  0.863092 *  0.785776 *  -2.00000    1.000000    
    266 S     c    0.506821 *  0.136908 *  0.285776 *  -2.00000    1.000000    
    267 S     c    0.493179 *  0.636908 *  0.714224 *  -2.00000    1.000000    
    268 S     c    0.006821 *  0.363092 *  0.214224 *  -2.00000    1.000000    
    269 S     c    0.006821 *  0.136908 *  0.214224 *  -2.00000    1.000000    
    270 S     c    0.493179 *  0.863092 *  0.714224 *  -2.00000    1.000000    
    271 S     c    0.506821 *  0.363092 *  0.285776 *  -2.00000    1.000000    
    272 S     c    0.993179 *  0.636908 *  0.785776 *  -2.00000    1.000000    
    273 S     c    0.434931 *  0.750000 *  0.654251 *  -2.00000    1.000000    
    274 S     c    0.065069 *  0.250000 *  0.154251 *  -2.00000    1.000000    
    275 S     c    0.934931 *  0.750000 *  0.845749 *  -2.00000    1.000000    
    276 S     c    0.565069 *  0.250000 *  0.345749 *  -2.00000    1.000000    
    277 S     c    0.191228 *  0.750000 *  0.647416 *  -2.00000    1.000000    
    278 S     c    0.308772 *  0.250000 *  0.147416 *  -2.00000    1.000000    
    279 S     c    0.691228 *  0.750000 *  0.852584 *  -2.00000    1.000000    
    280 S     c    0.808772 *  0.250000 *  0.352584 *  -2.00000    1.000000    
    281 S     c    0.277934 *  0.750000 *  0.039347 *  -2.00000    1.000000    
    282 S     c    0.222066 *  0.250000 *  0.539347 *  -2.00000    1.000000    
    283 S     c    0.777934 *  0.750000 *  0.460653 *  -2.00000    1.000000    
    284 S     c    0.722066 *  0.250000 *  0.960653 *  -2.00000    1.000000    
    285 S     c    0.111368 *  0.750000 *  0.062296 *  -2.00000    1.000000    
    286 S     c    0.388632 *  0.250000 *  0.562296 *  -2.00000    1.000000    
    287 S     c    0.611368 *  0.750000 *  0.437704 *  -2.00000    1.000000    
    288 S     c    0.888632 *  0.250000 *  0.937704 *  -2.00000    1.000000    
--------------------------------------------------------------------------------



********************************************************************************
*  General input information                                                   *
********************************************************************************

  Species output for all configurations : 

--------------------------------------------------------------------------------
  Species    Type    Atomic    Atomic    Charge       Radii (Angs)     Library
                     Number     Mass       (e)     Cova   Ionic  VDW   Symbol
--------------------------------------------------------------------------------
    Si       Core       14      28.09   4.000000   1.200  0.000  2.100          
    Ge       Core       32      72.61   4.000000   1.170  0.000  1.750          
    O        Core        8      16.00  -2.000000   0.730  0.000  1.360          
    S        Core       16      32.07  -2.000000   1.020  0.000  1.700          
--------------------------------------------------------------------------------


  Lattice summation method               =    Ewald          (3-D)
                                         =    Parry          (2-D)
                                         =    Saunders et al (1-D)
  Accuracy factor for lattice sums       =   12.000


  Analytic derivatives to be used

  Time limit = Infinity

  Maximum range for interatomic potentials =    100000.000000 Angstroms

  General interatomic potentials :

--------------------------------------------------------------------------------
Atom  Types   Potential      Parameter       Value         Units   Cutoffs(Ang)
  1     2                                                            Min /  Max 
--------------------------------------------------------------------------------
O    c O    c Buckingham    Buckingham A     22764.000    eV        0.000 12.000
                            Buckingham rho  0.14900000    Ang       
                            Buckingham C     27.880000    eV*Ang^6  
--------------------------------------------------------------------------------
O    c S    c Buckingham    Buckingham A     22764.000    eV        0.000 12.000
                            Buckingham rho  0.14900000    Ang       
                            Buckingham C     28.880000    eV*Ang^6  
--------------------------------------------------------------------------------
S    c S    c Buckingham    Buckingham A     22764.000    eV        0.000 12.000
                            Buckingham rho  0.14900000    Ang       
                            Buckingham C     29.880000    eV*Ang^6  
--------------------------------------------------------------------------------
O    c Si   c Buckingham    Buckingham A     1283.9070    eV        0.000 12.000
                            Buckingham rho  0.32052000    Ang       
                            Buckingham C     10.661580    eV*Ang^6  
--------------------------------------------------------------------------------
O    c Ge   c Buckingham    Buckingham A     1383.9070    eV        0.000 12.000
                            Buckingham rho  0.31052000    Ang       
                            Buckingham C     0.0000000    eV*Ang^6  
--------------------------------------------------------------------------------
Si   c S    c Buckingham    Buckingham A     1283.9070    eV        0.000 12.000
                            Buckingham rho  0.32052000    Ang       
                            Buckingham C     12.661580    eV*Ang^6  
--------------------------------------------------------------------------------
S    c Ge   c Buckingham    Buckingham A     1383.9070    eV        0.000 12.000
                            Buckingham rho  0.31052000    Ang       
                            Buckingham C     1.0000000    eV*Ang^6  
--------------------------------------------------------------------------------

********************************************************************************
*  Output for configuration   1                                                *
********************************************************************************


  Components of energy : 

--------------------------------------------------------------------------------
  Interatomic potentials     =        3031.00885855 eV    
  Monopole - monopole (real) =      -12234.89636288 eV    
  Monopole - monopole (recip)=       -3052.96674091 eV    
  Monopole - monopole (total)=      -15287.86310378 eV    
--------------------------------------------------------------------------------
  Total lattice energy       =      -12256.85424524 eV    
--------------------------------------------------------------------------------
  Total lattice energy       =        -1182599.0715 kJ/(mole unit cells)
--------------------------------------------------------------------------------

********************************************************************************
*  Monte Carlo                                                                 *
********************************************************************************

  Number of trial MC steps   =         1000

  Output frequency in steps  =          100

  Sample frequency in steps  =           10

  Probability of creation    =     0.000000
  Probability of destruction =     0.000000
  Probability of translation =     0.000000
  Probability of rotation    =     0.000000
  Probability of swap        =     1.000000
  Probability of strain      =     0.000000

  Maximum Cartesian shift    =     0.050000 Angstroms
  Maximum rotational shift   =   180.000000 degrees
  Maximum strain shift       =     0.100000
  Number of possible swaps   =            2
  Pairs for swap           1 =            1
  Pairs for swap           2 =            1


  Trials:       100 Accepted:        44 Mean E/N:   -12257.454992   288.000000
  Trials:       200 Accepted:        75 Mean E/N:   -12257.666353   288.000000
  Trials:       300 Accepted:       117 Mean E/N:   -12257.857262   288.000000
  Trials:       400 Accepted:       155 Mean E/N:   -12258.012898   288.000000
  Trials:       500 Accepted:       191 Mean E/N:   -12258.091627   288.000000
  Trials:       600 Accepted:       222 Mean E/N:   -12258.136010   288.000000
  Trials:       700 Accepted:       250 Mean E/N:   -12258.169079   288.000000
  Trials:       800 Accepted:       279 Mean E/N:   -12258.189684   288.000000
  Trials:       900 Accepted:       306 Mean E/N:   -12258.197081   288.000000
  Trials:      1000 Accepted:       331 Mean E/N:   -12258.206014   288.000000

  Monte Carlo properties :

  Mean number of atoms =      288.000000
  Mean   energy        =   -12258.206014
  Lowest energy        =   -12258.646195

  Acceptance ratios :

--------------------------------------------------------------------------------
 Operation          Attempts            Accepted            %Accepted
--------------------------------------------------------------------------------
 Swap                       1000                 331          33.1000
--------------------------------------------------------------------------------
 Total                      1000                 331          33.1000
--------------------------------------------------------------------------------


  Final fractional coordinates of atoms :

--------------------------------------------------------------------------------
   No.  Atomic        x           y          z          Radius
        Label       (Frac)      (Frac)     (Frac)       (Angs) 
--------------------------------------------------------------------------------
     1  Si    c     0.191569    0.066187    0.687539    0.000000
     2  Si    c     0.278691    0.444369    0.038762    0.000000
     3  Si    c     0.778691    0.055631    0.461238    0.000000
     4  Si    c     0.076119    0.328306    0.182134    0.000000
     5  Si    c     0.308315    0.871148    0.817612    0.000000
     6  Si    c     0.924463    0.058365    0.830079    0.000000
     7  Si    c     0.616012    0.827619    0.472705    0.000000
     8  Si    c     0.424463    0.441635    0.669921    0.000000
     9  Ge    c     0.570001    0.873565    0.684403    0.000000
    10  Ge    c     0.076119    0.171694    0.182134    0.000000
    11  Ge    c     0.688103    0.970092    0.181938    0.000000
    12  Ge    c     0.730935    0.329914    0.968863    0.000000
    13  Ge    c     0.687595    0.672563    0.816589    0.000000
    14  Ge    c     0.311897    0.470092    0.818062    0.000000
    15  Ge    c     0.576119    0.328306    0.317866    0.000000
    16  Ge    c     0.923881    0.828306    0.817866    0.000000
    17  Si    c     0.278691    0.055631    0.038762    0.000000
    18  Si    c     0.221309    0.944369    0.538762    0.000000
    19  Si    c     0.778691    0.444369    0.461238    0.000000
    20  Si    c     0.721309    0.555631    0.961238    0.000000
    21  Si    c     0.122787    0.063798    0.032235    0.000000
    22  Si    c     0.269065    0.670086    0.031137    0.000000
    23  Si    c     0.808431    0.933813    0.312461    0.000000
    24  Si    c     0.811897    0.470092    0.681938    0.000000
    25  Si    c     0.116012    0.827619    0.027295    0.000000
    26  Si    c     0.377213    0.936202    0.532235    0.000000
    27  Si    c     0.622787    0.436202    0.467765    0.000000
    28  Si    c     0.877213    0.563798    0.967765    0.000000
    29  Si    c     0.877213    0.936202    0.967765    0.000000
    30  Si    c     0.622787    0.063798    0.467765    0.000000
    31  Si    c     0.377213    0.563798    0.532235    0.000000
    32  Si    c     0.122787    0.436202    0.032235    0.000000
    33  Si    c     0.769065    0.829914    0.468863    0.000000
    34  Si    c     0.188103    0.970092    0.318062    0.000000
    35  Si    c     0.308431    0.566187    0.187539    0.000000
    36  Si    c     0.075537    0.558365    0.169921    0.000000
    37  Si    c     0.688103    0.529908    0.181938    0.000000
    38  Si    c     0.312405    0.327437    0.183411    0.000000
    39  Si    c     0.187595    0.672563    0.683411    0.000000
    40  Si    c     0.072734    0.468151    0.819483    0.000000
    41  Si    c     0.308431    0.933813    0.187539    0.000000
    42  Si    c     0.383988    0.172381    0.527295    0.000000
    43  Si    c     0.691569    0.433813    0.812461    0.000000
    44  Si    c     0.808431    0.566187    0.312461    0.000000
    45  Si    c     0.929999    0.126435    0.184403    0.000000
    46  Si    c     0.883988    0.172381    0.972705    0.000000
    47  Si    c     0.072734    0.031849    0.819483    0.000000
    48  Si    c     0.191569    0.433813    0.687539    0.000000
    49  Ge    c     0.691685    0.128852    0.182388    0.000000
    50  Ge    c     0.429999    0.126435    0.315597    0.000000
    51  Ge    c     0.572734    0.031849    0.680517    0.000000
    52  Ge    c     0.929999    0.373565    0.184403    0.000000
    53  Ge    c     0.429999    0.373565    0.315597    0.000000
    54  Ge    c     0.691685    0.371148    0.182388    0.000000
    55  Ge    c     0.812405    0.327437    0.316589    0.000000
    56  Ge    c     0.423881    0.828306    0.682134    0.000000
    57  Si    c     0.811897    0.029908    0.681938    0.000000
    58  Si    c     0.927266    0.531849    0.180517    0.000000
    59  Si    c     0.808315    0.628852    0.682388    0.000000
    60  Si    c     0.572734    0.468151    0.680517    0.000000
    61  Si    c     0.616012    0.672381    0.472705    0.000000
    62  Si    c     0.924463    0.441635    0.830079    0.000000
    63  Si    c     0.576119    0.171694    0.317866    0.000000
    64  Si    c     0.308315    0.628852    0.817612    0.000000
    65  Si    c     0.269065    0.829914    0.031137    0.000000
    66  Si    c     0.230935    0.170086    0.531137    0.000000
    67  Si    c     0.769065    0.670086    0.468863    0.000000
    68  Si    c     0.116012    0.672381    0.027295    0.000000
    69  Si    c     0.883988    0.327619    0.972705    0.000000
    70  Si    c     0.808315    0.871148    0.682388    0.000000
    71  Si    c     0.230935    0.329914    0.531137    0.000000
    72  Si    c     0.311897    0.029908    0.818062    0.000000
    73  Ge    c     0.191685    0.371148    0.317612    0.000000
    74  Ge    c     0.730935    0.170086    0.968863    0.000000
    75  Ge    c     0.427266    0.968151    0.319483    0.000000
    76  Ge    c     0.721309    0.944369    0.961238    0.000000
    77  Ge    c     0.812405    0.172563    0.316589    0.000000
    78  Ge    c     0.691569    0.066187    0.812461    0.000000
    79  Ge    c     0.188103    0.529908    0.318062    0.000000
    80  Ge    c     0.923881    0.671694    0.817866    0.000000
    81  Si    c     0.070001    0.873565    0.815597    0.000000
    82  Si    c     0.070001    0.626435    0.815597    0.000000
    83  Si    c     0.383988    0.327619    0.527295    0.000000
    84  Si    c     0.927266    0.968151    0.180517    0.000000
    85  Si    c     0.423881    0.671694    0.682134    0.000000
    86  Si    c     0.312405    0.172563    0.183411    0.000000
    87  Si    c     0.575537    0.558365    0.330079    0.000000
    88  Si    c     0.570001    0.626435    0.684403    0.000000
    89  Si    c     0.187595    0.827437    0.683411    0.000000
    90  Si    c     0.075537    0.941635    0.169921    0.000000
    91  Si    c     0.427266    0.531849    0.319483    0.000000
    92  Si    c     0.424463    0.058365    0.669921    0.000000
    93  Si    c     0.221309    0.555631    0.538762    0.000000
    94  Si    c     0.191685    0.128852    0.317612    0.000000
    95  Si    c     0.687595    0.827437    0.816589    0.000000
    96  Si    c     0.575537    0.941635    0.330079    0.000000
    97  O     c     0.299012    0.372439    0.085556    0.000000
    98  O     c     0.124985    0.936713    0.263780    0.000000
    99  O     c     0.201446    0.496298    0.613389    0.000000
   100  O     c     0.593182    0.002897    0.403380    0.000000
   101  O     c     0.624985    0.936713    0.236220    0.000000
   102  O     c     0.006821    0.363092    0.214224    0.000000
   103  O     c     0.701446    0.003702    0.886611    0.000000
   104  O     c     0.189182    0.450402    0.292138    0.000000
   105  O     c     0.318430    0.044905    0.935632    0.000000
   106  O     c     0.077001    0.871658    0.108778    0.000000
   107  O     c     0.873834    0.834898    0.724747    0.000000
   108  O     c     0.300836    0.863040    0.129559    0.000000
   109  O     c     0.681570    0.955095    0.064368    0.000000
   110  O     c     0.189182    0.049598    0.292138    0.000000
   111  O     c     0.873834    0.665102    0.724747    0.000000
   112  O     c     0.318430    0.455095    0.935632    0.000000
   113  O     c     0.742024    0.660159    0.730483    0.000000
   114  O     c     0.888632    0.250000    0.937704    0.000000
   115  O     c     0.506821    0.363092    0.285776    0.000000
   116  O     c     0.373834    0.834898    0.775253    0.000000
   117  O     c     0.700988    0.627561    0.914444    0.000000
   118  O     c     0.497669    0.046742    0.714013    0.000000
   119  O     c     0.913759    0.566474    0.073879    0.000000
   120  O     c     0.618293    0.064537    0.766034    0.000000
   121  O     c     0.699164    0.363040    0.870441    0.000000
   122  O     c     0.587899    0.952171    0.671344    0.000000
   123  O     c     0.593182    0.497103    0.403380    0.000000
   124  O     c     0.700658    0.052314    0.483419    0.000000
   125  O     c     0.934931    0.750000    0.845749    0.000000
   126  O     c     0.493179    0.863092    0.714224    0.000000
   127  O     c     0.192319    0.852321    0.021832    0.000000
   128  O     c     0.757976    0.339841    0.230483    0.000000
   129  O     c     0.913759    0.933526    0.073879    0.000000
   130  O     c     0.922999    0.371658    0.891222    0.000000
   131  O     c     0.744633    0.063598    0.722800    0.000000
   132  O     c     0.691976    0.358648    0.064386    0.000000
   133  O     c     0.808024    0.641352    0.564386    0.000000
   134  O     c     0.993179    0.863092    0.785776    0.000000
   135  O     c     0.406818    0.502897    0.596620    0.000000
   136  O     c     0.807681    0.147679    0.978168    0.000000
   137  O     c     0.891483    0.864851    0.913964    0.000000
   138  O     c     0.308024    0.641352    0.935614    0.000000
   139  O     c     0.413759    0.933526    0.426121    0.000000
   140  O     c     0.191976    0.141352    0.435614    0.000000
   141  O     c     0.755367    0.936402    0.222800    0.000000
   142  O     c     0.755367    0.563598    0.222800    0.000000
   143  O     c     0.002331    0.953258    0.214013    0.000000
   144  O     c     0.244633    0.436402    0.777200    0.000000
   145  O     c     0.798554    0.996298    0.386611    0.000000
   146  O     c     0.126166    0.165102    0.275253    0.000000
   147  O     c     0.255367    0.936402    0.277200    0.000000
   148  O     c     0.626166    0.334898    0.224747    0.000000
   149  O     c     0.626166    0.165102    0.224747    0.000000
   150  O     c     0.614888    0.657656    0.772071    0.000000
   151  O     c     0.126166    0.334898    0.275253    0.000000
   152  O     c     0.381707    0.935463    0.233966    0.000000
   153  O     c     0.114888    0.842344    0.727929    0.000000
   154  O     c     0.700658    0.447686    0.483419    0.000000
   155  O     c     0.993179    0.636908    0.785776    0.000000
   156  O     c     0.006821    0.136908    0.214224    0.000000
   157  O     c     0.807681    0.352321    0.978168    0.000000
   158  O     c     0.891483    0.635149    0.913964    0.000000
   159  O     c     0.700988    0.872439    0.914444    0.000000
   160  O     c     0.417113    0.334986    0.419131    0.000000
   161  O     c     0.614888    0.842344    0.772071    0.000000
   162  O     c     0.108517    0.135149    0.086036    0.000000
   163  O     c     0.299012    0.127561    0.085556    0.000000
   164  O     c     0.506821    0.136908    0.285776    0.000000
   165  O     c     0.087899    0.547829    0.828656    0.000000
   166  O     c     0.222066    0.250000    0.539347    0.000000
   167  O     c     0.502331    0.953258    0.285987    0.000000
   168  O     c     0.242024    0.660159    0.769517    0.000000
   169  O     c     0.181570    0.544905    0.435632    0.000000
   170  O     c     0.417113    0.165014    0.419131    0.000000
   171  O     c     0.582887    0.665014    0.580869    0.000000
   172  O     c     0.917113    0.334986    0.080869    0.000000
   173  O     c     0.917113    0.165014    0.080869    0.000000
   174  O     c     0.611368    0.750000    0.437704    0.000000
   175  O     c     0.799012    0.372439    0.414444    0.000000
   176  O     c     0.082887    0.665014    0.919131    0.000000
   177  O     c     0.118293    0.435463    0.733966    0.000000
   178  O     c     0.385112    0.157656    0.227929    0.000000
   179  O     c     0.242024    0.839841    0.769517    0.000000
   180  O     c     0.799342    0.947686    0.983419    0.000000
   181  O     c     0.885112    0.157656    0.272071    0.000000
   182  O     c     0.808772    0.250000    0.352584    0.000000
   183  O     c     0.434931    0.750000    0.654251    0.000000
   184  O     c     0.722066    0.250000    0.960653    0.000000
   185  O     c     0.808024    0.858648    0.564386    0.000000
   186  O     c     0.277934    0.750000    0.039347    0.000000
   187  O     c     0.300836    0.636960    0.129559    0.000000
   188  O     c     0.691228    0.750000    0.852584    0.000000
   189  O     c     0.757976    0.160159    0.230483    0.000000
   190  O     c     0.124985    0.563287    0.263780    0.000000
   191  O     c     0.257976    0.339841    0.269517    0.000000
   192  O     c     0.497669    0.453258    0.714013    0.000000
   193  O     c     0.310818    0.950402    0.792138    0.000000
   194  O     c     0.200658    0.447686    0.016581    0.000000
   195  O     c     0.912101    0.452171    0.171344    0.000000
   196  O     c     0.689182    0.450402    0.207862    0.000000
   197  O     c     0.689182    0.049598    0.207862    0.000000
   198  O     c     0.608517    0.364851    0.413964    0.000000
   199  O     c     0.699164    0.136960    0.870441    0.000000
   200  O     c     0.299342    0.947686    0.516581    0.000000
   201  O     c     0.502331    0.546742    0.285987    0.000000
   202  O     c     0.422999    0.371658    0.608778    0.000000
   203  O     c     0.299342    0.552314    0.516581    0.000000
   204  O     c     0.885112    0.342344    0.272071    0.000000
   205  O     c     0.691976    0.141352    0.064386    0.000000
   206  O     c     0.199164    0.136960    0.629559    0.000000
   207  O     c     0.412101    0.452171    0.328656    0.000000
   208  O     c     0.692319    0.852321    0.478168    0.000000
   209  O     c     0.799012    0.127561    0.414444    0.000000
   210  O     c     0.200988    0.627561    0.585556    0.000000
   211  O     c     0.257976    0.160159    0.269517    0.000000
   212  O     c     0.777934    0.750000    0.460653    0.000000
   213  O     c     0.577001    0.628342    0.391222    0.000000
   214  O     c     0.191228    0.750000    0.647416    0.000000
   215  O     c     0.922999    0.128342    0.891222    0.000000
   216  O     c     0.608517    0.135149    0.413964    0.000000
   217  O     c     0.412101    0.047829    0.328656    0.000000
   218  O     c     0.199164    0.363040    0.629559    0.000000
   219  O     c     0.255367    0.563598    0.277200    0.000000
   220  O     c     0.692319    0.647679    0.478168    0.000000
   221  O     c     0.065069    0.250000    0.154251    0.000000
   222  O     c     0.565069    0.250000    0.345749    0.000000
   223  O     c     0.391483    0.864851    0.586036    0.000000
   224  O     c     0.181570    0.955095    0.435632    0.000000
   225  S     c     0.093182    0.497103    0.096620    0.000000
   226  S     c     0.086241    0.066474    0.926121    0.000000
   227  S     c     0.111368    0.750000    0.062296    0.000000
   228  S     c     0.388632    0.250000    0.562296    0.000000
   229  S     c     0.810818    0.549598    0.707862    0.000000
   230  S     c     0.244633    0.063598    0.777200    0.000000
   231  S     c     0.493179    0.636908    0.714224    0.000000
   232  S     c     0.114888    0.657656    0.727929    0.000000
   233  S     c     0.586241    0.433526    0.573879    0.000000
   234  S     c     0.818430    0.044905    0.564368    0.000000
   235  S     c     0.308024    0.858648    0.935614    0.000000
   236  S     c     0.624985    0.563287    0.236220    0.000000
   237  S     c     0.077001    0.628342    0.108778    0.000000
   238  S     c     0.818430    0.455095    0.564368    0.000000
   239  S     c     0.373834    0.665102    0.775253    0.000000
   240  S     c     0.002331    0.546742    0.214013    0.000000
   241  S     c     0.201446    0.003702    0.613389    0.000000
   242  S     c     0.298554    0.996298    0.113389    0.000000
   243  S     c     0.701446    0.496298    0.886611    0.000000
   244  S     c     0.375015    0.436713    0.763780    0.000000
   245  S     c     0.192319    0.647679    0.021832    0.000000
   246  S     c     0.800836    0.863040    0.370441    0.000000
   247  S     c     0.298554    0.503702    0.113389    0.000000
   248  S     c     0.875015    0.436713    0.736220    0.000000
   249  S     c     0.810818    0.950402    0.707862    0.000000
   250  S     c     0.406818    0.997103    0.596620    0.000000
   251  S     c     0.681570    0.544905    0.064368    0.000000
   252  S     c     0.875015    0.063287    0.736220    0.000000
   253  S     c     0.307681    0.147679    0.521832    0.000000
   254  S     c     0.800836    0.636960    0.370441    0.000000
   255  S     c     0.577001    0.871658    0.391222    0.000000
   256  S     c     0.082887    0.834986    0.919131    0.000000
   257  S     c     0.799342    0.552314    0.983419    0.000000
   258  S     c     0.618293    0.435463    0.766034    0.000000
   259  S     c     0.200658    0.052314    0.016581    0.000000
   260  S     c     0.093182    0.002897    0.096620    0.000000
   261  S     c     0.191976    0.358648    0.435614    0.000000
   262  S     c     0.375015    0.063287    0.763780    0.000000
   263  S     c     0.108517    0.364851    0.086036    0.000000
   264  S     c     0.308772    0.250000    0.147416    0.000000
   265  S     c     0.587899    0.547829    0.671344    0.000000
   266  S     c     0.912101    0.047829    0.171344    0.000000
   267  S     c     0.906818    0.502897    0.903380    0.000000
   268  S     c     0.586241    0.066474    0.573879    0.000000
   269  S     c     0.881707    0.564537    0.266034    0.000000
   270  S     c     0.582887    0.834986    0.580869    0.000000
   271  S     c     0.881707    0.935463    0.266034    0.000000
   272  S     c     0.744633    0.436402    0.722800    0.000000
   273  S     c     0.391483    0.635149    0.586036    0.000000
   274  S     c     0.307681    0.352321    0.521832    0.000000
   275  S     c     0.118293    0.064537    0.733966    0.000000
   276  S     c     0.422999    0.128342    0.608778    0.000000
   277  S     c     0.200988    0.872439    0.585556    0.000000
   278  S     c     0.798554    0.503702    0.386611    0.000000
   279  S     c     0.997669    0.046742    0.785987    0.000000
   280  S     c     0.087899    0.952171    0.828656    0.000000
   281  S     c     0.086241    0.433526    0.926121    0.000000
   282  S     c     0.997669    0.453258    0.785987    0.000000
   283  S     c     0.742024    0.839841    0.730483    0.000000
   284  S     c     0.310818    0.549598    0.792138    0.000000
   285  S     c     0.413759    0.566474    0.426121    0.000000
   286  S     c     0.906818    0.997103    0.903380    0.000000
   287  S     c     0.381707    0.564537    0.233966    0.000000
   288  S     c     0.385112    0.342344    0.227929    0.000000
--------------------------------------------------------------------------------


  Peak dynamic memory used =       2.78 MB 


  Timing analysis for GULP :

--------------------------------------------------------------------------------
  Task / Subroutine                                          Time (Seconds)
--------------------------------------------------------------------------------
  Calculation of reciprocal space energy and derivatives          4.5109
  Calculation of real space energy and derivatives                2.6398
  Monte Carlo operations excluding energy                         0.6418
  Symmetry generation of equivalent positions                     0.0076
--------------------------------------------------------------------------------
  Total CPU time                                                  7.8171
--------------------------------------------------------------------------------


  Dump file written as example60.res


  Job Finished at 11:59.25  8th July       2020                               

