********************************************************************************
*                       GENERAL UTILITY LATTICE PROGRAM                        *
*                                 Julian Gale                                  *
*                       Curtin Institute for Computation                       *
*                    School of Molecular and Life Sciences                     *
*                    Curtin University, Western Australia                      *
********************************************************************************
* Version = 6.0.0 * Last modified =   4th December 2020                        *
********************************************************************************
*  optimise     - perform optimisation run                                     *
*  conv         - constant volume calculation                                  *
*  hessian      - output inverse Hessian matrix when calculated exactly        *
********************************************************************************

  Job Started  at 09:24.54 22nd December   2020                               

  Number of CPUs =     1

  Host name      = M-A0034725                              


  Total number of configurations input =      1

********************************************************************************
*  Input for Configuration =   1                                               *
********************************************************************************

  Formula = SiO5                                                        

  Number of irreducible atoms/shells =       6


  Total number atoms/shells =       6

  Dimensionality = 0               :  Cluster


  Charge on cluster =   0.000000


  Initial cluster dipoles : x =      0.000000 e.Angs
                            y =      0.000000 e.Angs
                            z =      0.000000 e.Angs

  Temperature of configuration =   0.00     K 

  Symmetry number =      1

  Cartesian coordinates of cluster :

--------------------------------------------------------------------------------
   No.  Atomic       x           y          z         Charge      Occupancy
        Label      (Angs)      (Angs)     (Angs)        (e)         (Frac)  
--------------------------------------------------------------------------------
      1 Si1   c      0.0000      0.0000      0.0000     0.00000    1.000000    
      2 O1    c     -2.5000 *    0.0000 *    0.0000 *   0.00000    1.000000    
      3 O1    c      2.7000 *    0.0000 *    0.0000 *   0.00000    1.000000    
      4 O1    c      0.0000 *    2.5000 *    0.0000 *   0.00000    1.000000    
      5 O1    c      0.0000 *   -2.6000 *    0.0000 *   0.00000    1.000000    
      6 O1    c      0.0000 *    0.0000 *    2.5000 *   0.00000    1.000000    
--------------------------------------------------------------------------------



********************************************************************************
*  General input information                                                   *
********************************************************************************

  Species output for all configurations : 

--------------------------------------------------------------------------------
  Species    Type    Atomic    Atomic    Charge       Radii (Angs)     Library
                     Number     Mass       (e)     Cova   Ionic  VDW   Symbol
--------------------------------------------------------------------------------
    O1       Core        8      16.00   0.000000   0.730  0.000  1.360 O        
    Si1      Core       14      28.09   0.000000   1.200  0.000  2.100 Si       
--------------------------------------------------------------------------------


  Accuracy factor for short range sums = 12.000

  Electrostatics method = Direct Coulomb

  Analytic derivatives to be used

  Time limit = Infinity

  Bond-order two-body potentials :

--------------------------------------------------------------------------------
Atom  Types                 A                 B                  Cutoffs(Ang)   
  1     2                 ZetaA             ZetaB                Taper    Max   
--------------------------------------------------------------------------------
O1   c O1   c          3331.0600000000       260.4770000000     2.2607   3.3129
                          3.783360000          3.344020000    
--------------------------------------------------------------------------------
Si1  c Si1  c          1830.7900000000       471.1950000000     2.4481   3.0835
                          2.623920000          1.888910000    
--------------------------------------------------------------------------------
O1   c Si1  c          2586.8593540000       350.2591000000     2.3525   3.1962
                          3.943670000          2.315955000    
--------------------------------------------------------------------------------

  Bond-order repulsive :

--------------------------------------------------------------------------------
Atom    Type         Omega            Lambda          M                           
 1/2     1/2                                                                    
--------------------------------------------------------------------------------
O1   c             1.00000000       3.98638000        0
O1   c
--------------------------------------------------------------------------------
Si1  c             3.00000000       0.78766000        0
Si1  c
--------------------------------------------------------------------------------
O1   c             1.00000000       3.98638000        0
Si1  c
--------------------------------------------------------------------------------
Si1  c             3.00000000       0.78766000        0
O1   c
--------------------------------------------------------------------------------

  Bond-order attractive :

--------------------------------------------------------------------------------
Atom    Type         Omega            Lambda          M                           
 1/2     1/2           C              D                H                        
--------------------------------------------------------------------------------
O1   c  Theta       1.00000000       3.98638000       1
O1   c              3.34402000       0.00000000       1.00000000
--------------------------------------------------------------------------------
Si1  c  Theta       3.00000000       0.78766000       0
Si1  c              1.88891000  100390.00000000      16.21701000
--------------------------------------------------------------------------------
O1   c  Theta       1.00000000       3.98638000       1
Si1  c              2.31595500       0.00000000       1.00000000
--------------------------------------------------------------------------------
Si1  c  Theta       3.00000000       0.78766000       0
O1   c              2.31595500  100390.00000000      16.21701000
--------------------------------------------------------------------------------

  Bond-order coordination :

--------------------------------------------------------------------------------
Atom              C1              C2              Z0              E0            
--------------------------------------------------------------------------------
Si1  c         -0.12380000       0.28520000       3.70000000    -103.73300000
--------------------------------------------------------------------------------
O1   c         -0.00380000       0.13930000       2.80000000    -432.15800000
--------------------------------------------------------------------------------

********************************************************************************
*  Output for configuration   1                                                *
********************************************************************************


  Number of neighbours for atoms :

  i  Nat   N
   1  14      5
   2   8      1
   3   8      1
   4   8      1
   5   8      1
   6   8      1

  Neighbours of atoms :

   1    2    3    4    5    6
   2    1
   3    1
   4    1
   5    1
   6    1

  Components of energy : 

--------------------------------------------------------------------------------
  Interatomic potentials     =           0.00000000 eV    
  Bond-order potentials      =       -2267.25807020 eV    
  Monopole - monopole (real) =           0.00000000 eV    
--------------------------------------------------------------------------------
  Total lattice energy       =       -2267.25807020 eV    
--------------------------------------------------------------------------------
  Total lattice energy       =         -218755.7456 kJ/mol
--------------------------------------------------------------------------------


  Number of variables =       15

  Maximum number of calculations  =             1
  Maximum Hessian update interval =            10
  Maximum step size               =   1.000000000
  Maximum parameter tolerance     =   0.000010000
  Maximum function  tolerance     =   0.000010000
  Maximum gradient  tolerance     =   0.001000000
  Maximum gradient  component     =   0.010000000

  Symmetry not applied to optimisation

  Newton-Raphson optimiser to be used

  BFGS hessian update to be used

  Lower half triangular hessian to be used

  Start of cluster optimisation :


  Number of neighbours for atoms :

  i  Nat   N
   1  14      5
   2   8      1
   3   8      1
   4   8      1
   5   8      1
   6   8      1

  Neighbours of atoms :

   1    2    3    4    5    6
   2    1
   3    1
   4    1
   5    1
   6    1
  Cycle:      0 Energy:     -2267.258070  Gnorm:      0.573768  CPU:    0.005

 Hessian Matrix :

      -39.1480
        0.0000      1.5092
        0.0000      0.0000      1.5092
       81.0232      0.0000      0.0000   -152.5073
        0.0000      0.0000      0.0000      0.0000      1.4400
        0.0000      0.0000      0.0000      0.0000      0.0000      1.4400
        0.0000      0.0000      0.0000      0.0000      0.0000      0.0000      1.5092
       43.9656      0.0000      0.0000    -81.0232      0.0000      0.0000      0.0000    -39.1480
        0.0000      0.0000      0.0000      0.0000      0.0000      0.0000      0.0000      0.0000      1.5092
        0.0000      0.0000      0.0000      0.0000      0.0000      0.0000      0.0000      0.0000      0.0000      1.5505
      -67.0927      0.0000      0.0000    123.6434      0.0000      0.0000      0.0000     67.0927      0.0000      0.0000
   -101.9290
        0.0000      0.0000      0.0000      0.0000      0.0000      0.0000      0.0000      0.0000      0.0000      0.0000
      0.0000      1.5505
        0.0000      0.0000      0.0000      0.0000      0.0000      0.0000      0.0000      0.0000      0.0000      0.0000
      0.0000      0.0000      1.5092
        0.0000      0.0000      0.0000      0.0000      0.0000      0.0000      0.0000      0.0000      0.0000      0.0000
      0.0000      0.0000      0.0000      1.5092
       43.9656      0.0000      0.0000    -81.0232      0.0000      0.0000      0.0000    -43.9656      0.0000      0.0000
     67.0927      0.0000      0.0000      0.0000    -39.1480

 Inverse Hessian Matrix :

    0.19828772
    0.00000000  0.66262302
    0.00000000  0.00000000  0.66262302
   -0.02582645  0.00000000  0.00000000 -0.38515216
    0.00000000  0.00000000  0.00000000  0.00000000  0.69443366
    0.00000000  0.00000000  0.00000000  0.00000000  0.00000000  0.69443366
    0.00000000  0.00000000  0.00000000  0.00000000  0.00000000  0.00000000  0.66262302
    0.00928456  0.00000000  0.00000000  0.02582645  0.00000000  0.00000000  0.00000000  0.19828772
    0.00000000  0.00000000  0.00000000  0.00000000  0.00000000  0.00000000  0.00000000  0.00000000  0.66262302
    0.00000000  0.00000000  0.00000000  0.00000000  0.00000000  0.00000000  0.00000000  0.00000000  0.00000000  0.64495447
   -0.14962454  0.00000000  0.00000000 -0.41620394  0.00000000  0.00000000  0.00000000  0.14962454  0.00000000  0.00000000
 -0.21921881
    0.00000000  0.00000000  0.00000000  0.00000000  0.00000000  0.00000000  0.00000000  0.00000000  0.00000000  0.00000000
  0.00000000  0.64495447
    0.00000000  0.00000000  0.00000000  0.00000000  0.00000000  0.00000000  0.00000000  0.00000000  0.00000000  0.00000000
  0.00000000  0.00000000  0.66262302
    0.00000000  0.00000000  0.00000000  0.00000000  0.00000000  0.00000000  0.00000000  0.00000000  0.00000000  0.00000000
  0.00000000  0.00000000  0.00000000  0.66262302
    0.00928456  0.00000000  0.00000000  0.02582645  0.00000000  0.00000000  0.00000000 -0.00928456  0.00000000  0.00000000
  0.14962454  0.00000000  0.00000000  0.00000000  0.19828772


  ** Hessian calculated **
  ** Cosine =  -0.904030

  Number of neighbours for atoms :

  i  Nat   N
   1  14      5
   2   8      1
   3   8      1
   4   8      1
   5   8      1
   6   8      1

  Neighbours of atoms :

   1    2    3    4    5    6
   2    1
   3    1
   4    1
   5    1
   6    1

  Number of neighbours for atoms :

  i  Nat   N
   1  14      5
   2   8      1
   3   8      1
   4   8      1
   5   8      1
   6   8      1

  Neighbours of atoms :

   1    2    3    4    5    6
   2    1
   3    1
   4    1
   5    1
   6    1

  Number of neighbours for atoms :

  i  Nat   N
   1  14      5
   2   8      1
   3   8      1
   4   8      1
   5   8      1
   6   8      1

  Neighbours of atoms :

   1    2    3    4    5    6
   2    1
   3    1
   4    1
   5    1
   6    1

  Number of neighbours for atoms :

  i  Nat   N
   1  14      5
   2   8      1
   3   8      1
   4   8      1
   5   8      1
   6   8      1

  Neighbours of atoms :

   1    2    3    4    5    6
   2    1
   3    1
   4    1
   5    1
   6    1

  Number of neighbours for atoms :

  i  Nat   N
   1  14      5
   2   8      1
   3   8      1
   4   8      1
   5   8      1
   6   8      1

  Neighbours of atoms :

   1    2    3    4    5    6
   2    1
   3    1
   4    1
   5    1
   6    1
  Cycle:      1 Energy:     -2267.952522  Gnorm:      0.383320  CPU:    0.005


  **** Maximum number of function calls has been reached ****


  Final energy =   -2267.95252178 eV      
  Final Gnorm  =       0.38332006

  Components of energy : 

--------------------------------------------------------------------------------
  Interatomic potentials     =           0.00000000 eV    
  Bond-order potentials      =       -2267.95252178 eV    
  Monopole - monopole (real) =           0.00000000 eV    
--------------------------------------------------------------------------------
  Total lattice energy       =       -2267.95252178 eV    
--------------------------------------------------------------------------------
  Total lattice energy       =         -218822.7495 kJ/mol
--------------------------------------------------------------------------------

  Final cartesian coordinates of atoms :

--------------------------------------------------------------------------------
   No.  Atomic        x           y          z          Radius
        Label       (Angs)      (Angs)     (Angs)       (Angs) 
--------------------------------------------------------------------------------
     1  Si1   c     0.000000    0.000000    0.000000    0.000000
     2  O1    c    -2.427719    0.000000    0.000000    0.000000
     3  O1    c     2.680879    0.000000    0.000000    0.000000
     4  O1    c     0.000000    2.427719    0.000000    0.000000
     5  O1    c     0.000000   -2.570337    0.000000    0.000000
     6  O1    c     0.000000    0.000000    2.427719    0.000000
--------------------------------------------------------------------------------


  Final Cartesian derivatives :

--------------------------------------------------------------------------------
   No.  Atomic          x             y             z           Radius
        Label       (eV/Angs)     (eV/Angs)     (eV/Angs)      (eV/Angs)
--------------------------------------------------------------------------------
      1 Si1   c       0.000000      0.000000      0.000000      0.000000
      2 O1    c      -2.739675      0.000000      0.000000      0.000000
      3 O1    c       2.036292      0.000000      0.000000      0.000000
      4 O1    c       0.000000      2.739675      0.000000      0.000000
      5 O1    c       0.000000     -2.529084      0.000000      0.000000
      6 O1    c       0.000000      0.000000      2.739675      0.000000
--------------------------------------------------------------------------------
  Maximum abs         2.739675      2.739675      2.739675      0.000000
--------------------------------------------------------------------------------


  Time to end of optimisation =       0.0054 seconds


  Peak dynamic memory used =       1.80 MB 


  Timing analysis for GULP :

--------------------------------------------------------------------------------
  Task / Subroutine                                          Time (Seconds)
--------------------------------------------------------------------------------
  Calculation of Bond Order energy and derivatives                0.0003
  Calculation and manipulation of Hessian matrix                  0.0001
--------------------------------------------------------------------------------
  Total CPU time                                                  0.0055
--------------------------------------------------------------------------------


  Job Finished at 09:24.54 22nd December   2020                               

