********************************************************************************
*                       GENERAL UTILITY LATTICE PROGRAM                        *
*                                 Julian Gale                                  *
*                       Curtin Institute for Computation                       *
*                    School of Molecular and Life Sciences                     *
*                    Curtin University, Western Australia                      *
********************************************************************************
* Version = 5.2.0 * Last modified =  28th July 2019                            *
********************************************************************************
*  fit          - perform fitting run                                          *
*  conp         - constant pressure calculation                                *
*  relax        - relax structure during fitting                               *
********************************************************************************
* fit the structure of quartz using relax fitting                              *
* as opposed to simul fitting as used in example2                              *
********************************************************************************


  Job Started  at 15:23.30 28th July       2019                               

  Number of CPUs =     1

  Host name      = M-A0034725                              


  Total number of configurations input =      1

********************************************************************************
*  Input for Configuration =   1                                               *
********************************************************************************

  Formula = Si3O6                                                       

  Number of irreducible atoms/shells =       3


  Total number atoms/shells =      15

  Dimensionality = 3               :  Bulk   


  Symmetry :

  Crystal family                   :  Hexagonal   
  Crystal class  (Groth - 1921)    :  Trigonal Trapezohedral               

  Space group (noncentrosymmetric) :  P 31 2 1        

  Patterson group                  :  P -3 m 1 

  Cartesian lattice vectors (Angstroms) :

        4.914730    0.000000    0.000000
       -2.457365    4.256281    0.000000
        0.000000    0.000000    5.406570

  Cell parameters (Angstroms/Degrees):

  a =       4.9147    alpha =  90.0000
  b =       4.9147    beta  =  90.0000
  c =       5.4066    gamma = 120.0000

  Initial cell volume =         113.097184 Angs**3

  Temperature of configuration =   0.00     K 

  Pressure of configuration =         0.000 GPa 

  Fractional coordinates of asymmetric unit :

--------------------------------------------------------------------------------
   No.  Atomic       x           y          z         Charge      Occupancy
        Label      (Frac)      (Frac)     (Frac)        (e)         (Frac)  
--------------------------------------------------------------------------------
      1 Si    c    0.468200 *  0.000000    0.333333     4.00000    1.000000    
      2 O     c    0.413100 *  0.266100 *  0.213100 *   0.86902    1.000000    
      3 O     s    0.431813 *  0.264902 *  0.204106 *  -2.86902    1.000000    
--------------------------------------------------------------------------------


  Constraints : 

--------------------------------------------------------------------------------
  Constraint no.      Unconstrained     Constrained    Coefficient    Offset
                         Variable         Variable
--------------------------------------------------------------------------------
           1              Strain 1        Strain 2       1.00000      0.0000
--------------------------------------------------------------------------------


********************************************************************************
*  General input information                                                   *
********************************************************************************

  Species output for all configurations : 

--------------------------------------------------------------------------------
  Species    Type    Atomic    Atomic    Charge       Radii (Angs)     Library
                     Number     Mass       (e)     Cova   Ionic  VDW   Symbol
--------------------------------------------------------------------------------
    Si       Core       14      28.09   4.000000   1.200  0.000  2.100          
    O        Core        8      16.00   0.869020   0.730  0.000  1.360          
    O        Shell       8       0.00  -2.869020   0.730  0.000  1.360          
--------------------------------------------------------------------------------


  Lattice summation method               =    Ewald          (3-D)
                                         =    Parry          (2-D)
                                         =    Saunders et al (1-D)
  Accuracy factor for lattice sums       =   12.000


  Analytic derivatives to be used

  Time limit = Infinity

  Maximum range for interatomic potentials =    100000.000000 Angstroms

  General interatomic potentials :

--------------------------------------------------------------------------------
Atom  Types   Potential      Parameter       Value         Units   Cutoffs(Ang)
  1     2                                                            Min /  Max 
--------------------------------------------------------------------------------
Si   c O    s Buckingham    Buckingham A     1283.0377    eV        0.000 12.000
                            Buckingham rho  0.32050000    Ang       
                            Buckingham C     10.660000    eV*Ang^6  
--------------------------------------------------------------------------------
O    s O    s Buckingham    Buckingham A     22764.000    eV        0.000 12.000
                            Buckingham rho  0.14900000    Ang       
                            Buckingham C     27.880000    eV*Ang^6  
--------------------------------------------------------------------------------
O    c O    s Spring (c-s)  Spring k 2       74.920000    eV*Ang^-2 0.000  0.800
                            Spring k 4       0.0000000    eV*Ang^-4 
--------------------------------------------------------------------------------

  General Three-body potentials :

--------------------------------------------------------------------------------
  Atoms       Potential      Parameter       Value         Units   Cutoffs(Ang)
  1 / 2 / 3                                                          Min /  Max 
--------------------------------------------------------------------------------
Si    core    Harmonic      Three-body cnst  2.0972400    eV*rad^-2 0.000  1.800
O     shel                  Three-body angl  109.47000    degrees   0.000  1.800
O     shel                  Three-body k4    0.0000000    eV*rad^-4 0.000  3.500
                            Three-body k3    0.0000000    eV*rad^-3 
--------------------------------------------------------------------------------


  Number of variables   =    1
  Number of observables =   13

--------------------------------------------------------------------------------
   Observable no.  Type           Observable    Weight       Reference  Confign 
--------------------------------------------------------------------------------
          1        Elastic Const    86.830000        0.0100    1  1        1
          2        Elastic Const   104.980000        0.0100    3  3        1
          3        Elastic Const    58.260000        0.0100    4  4        1
          4        Elastic Const    39.870000        0.0100    6  6        1
          5        Static Di C       4.520000        1.0000    1  1        1
          6        Static Di C       4.640000        1.0000    3  3        1
          7        High Freq DiC     2.400000        1.0000    1  1        1
          8        Structure         0.468200    10000.0000    1 x         1
          9        Structure         0.413100    10000.0000    2 x         1
         10        Structure         0.266100    10000.0000    2 y         1
         11        Structure         0.213100    10000.0000    2 z         1
         12        Structure         4.914730     1000.0000    a           1
         13        Structure         5.406570     1000.0000    c           1
--------------------------------------------------------------------------------

  Variables :

--------------------------------------------------------------------------------
     Parameter No.       Parameter Value          Parameter Type  Species
--------------------------------------------------------------------------------
             1               1283.037674          Buckingham A   
--------------------------------------------------------------------------------

  Symmetry constraints used for fitting
  First derivatives of residuals to be used in fitting

  Maximum no. of cycles   =       5000
  Maximum step size       =  1000.0000
  Tolerance on parameters =  0.0000100
  Tolerance on function   =  0.0000100
  Tolerance on gradient   =  0.0001000
  Differencing interval   =  0.0001000

  Start of fitting :

  Cycle:      0  Sum sqs:      17.022899  Gnorm:    963.347373  CPU:    0.047
  ** Hessian calculated **
  Cycle:      1  Sum sqs:       3.609339  Gnorm:      8.973310  CPU:    0.144
  Cycle:      2  Sum sqs:       3.607923  Gnorm:      0.552493  CPU:    0.244
  Cycle:      3  Sum sqs:       3.607918  Gnorm:      0.000121  CPU:    0.325


  **** Fit completed successfully ****


  Final sum of squares =             3.607918

  Final gradient norm  =             0.000121

  Final values of parameters :

--------------------------------------------------------------------------------
 Parameter No.    Parameter        Parameter      Parameter Type  Species
                  Original         Final                                 
--------------------------------------------------------------------------------
         1           1283.037674      1319.541244 Buckingham A   
--------------------------------------------------------------------------------


  Final values of numerical parameter gradients :

--------------------------------------------------------------------------------
     Parameter No.       Parameter Gradient      Parameter Type  Species
--------------------------------------------------------------------------------
             1                 -0.000121          Buckingham A   
--------------------------------------------------------------------------------


  Final values of residuals :

--------------------------------------------------------------------------------
   Observable no.  Type            Observable   Calculated    Residual  Error(%)
--------------------------------------------------------------------------------
          1        Elastic Const     86.83000     89.75690      0.08567    3.371
          2        Elastic Const    104.98000    108.57238      0.12905    3.422
          3        Elastic Const     58.26000     47.40085      1.17921  -18.639
          4        Elastic Const     39.87000     37.35833      0.06309   -6.300
          5        Static Di C        4.52000      4.40165      0.01401   -2.618
          6        Static Di C        4.64000      4.67954      0.00156    0.852
          7        High Freq DiC      2.40000      2.04654      0.12493  -14.727
          8        Structure          0.46820      0.46554      0.07100   -0.569
          9        Structure          0.41310      0.41030      0.07865   -0.679
         10        Structure          0.26610      0.27545      0.87456    3.514
         11        Structure          0.21310      0.22152      0.70855    3.950
         12        Structure          4.91473      4.90884      0.03467   -0.120
         13        Structure          5.40657      5.42216      0.24297    0.288
--------------------------------------------------------------------------------

  Comparison of initial and final observables :

--------------------------------------------------------------------------------
   Observable no.  Type            Observable   Initial       Final             
--------------------------------------------------------------------------------
          1        Elastic Const     86.83000     94.73069     89.75690
          2        Elastic Const    104.98000    116.31452    108.57238
          3        Elastic Const     58.26000     50.05915     47.40085
          4        Elastic Const     39.87000     38.08303     37.35833
          5        Static Di C        4.52000      4.75366      4.40165
          6        Static Di C        4.64000      5.02658      4.67954
          7        High Freq DiC      2.40000      2.11975      2.04654
          8        Structure          0.46820      0.46366      0.46554
          9        Structure          0.41310      0.40816      0.41030
         10        Structure          0.26610      0.27870      0.27545
         11        Structure          0.21310      0.22488      0.22152
         12        Structure          4.91473      4.83250      4.90884
         13        Structure          5.40657      5.34303      5.42216
--------------------------------------------------------------------------------

  Maximum range for interatomic potentials =    100000.000000 Angstroms

  General interatomic potentials :

--------------------------------------------------------------------------------
Atom  Types   Potential      Parameter       Value         Units   Cutoffs(Ang)
  1     2                                                            Min /  Max 
--------------------------------------------------------------------------------
Si   c O    s Buckingham    Buckingham A     1319.5412    eV        0.000 12.000
                            Buckingham rho  0.32050000    Ang       
                            Buckingham C     10.660000    eV*Ang^6  
--------------------------------------------------------------------------------
O    s O    s Buckingham    Buckingham A     22764.000    eV        0.000 12.000
                            Buckingham rho  0.14900000    Ang       
                            Buckingham C     27.880000    eV*Ang^6  
--------------------------------------------------------------------------------
O    c O    s Spring (c-s)  Spring k 2       74.920000    eV*Ang^-2 0.000  0.800
                            Spring k 4       0.0000000    eV*Ang^-4 
--------------------------------------------------------------------------------

  General Three-body potentials :

--------------------------------------------------------------------------------
  Atoms       Potential      Parameter       Value         Units   Cutoffs(Ang)
  1 / 2 / 3                                                          Min /  Max 
--------------------------------------------------------------------------------
Si    core    Harmonic      Three-body cnst  2.0972400    eV*rad^-2 0.000  1.800
O     shel                  Three-body angl  109.47000    degrees   0.000  1.800
O     shel                  Three-body k4    0.0000000    eV*rad^-4 0.000  3.500
                            Three-body k3    0.0000000    eV*rad^-3 
--------------------------------------------------------------------------------



  Total time to end of fitting =       0.3364 seconds

********************************************************************************
*  Output for configuration   1                                                *
********************************************************************************


  Components of energy : 

--------------------------------------------------------------------------------
  Interatomic potentials     =         103.96602973 eV    
  Three-body potentials      =           0.06032902 eV    
  Monopole - monopole (real) =        -110.49398920 eV    
  Monopole - monopole (recip)=        -376.56674888 eV    
  Monopole - monopole (total)=        -487.06073807 eV    
--------------------------------------------------------------------------------
  Total lattice energy       =        -383.03437933 eV    
--------------------------------------------------------------------------------
  Total lattice energy       =          -36956.9624 kJ/(mole unit cells)
--------------------------------------------------------------------------------

  Peak dynamic memory used =       1.86 MB 


  Timing analysis for GULP :

--------------------------------------------------------------------------------
  Task / Subroutine                                          Time (Seconds)
--------------------------------------------------------------------------------
  Calculation of reciprocal space energy and derivatives          0.0080
  Calculation of reciprocal space energy using symmetry           0.0320
  Calculation of real space energy and derivatives                0.0578
  Calculation of real space energy using symmetry                 0.1995
  Calculation of three-body energy and derivatives                0.0206
  Calculation and manipulation of Hessian matrix                  0.0003
  Calculation of matrix inversion                                 0.0002
  Sum of squares for fitting                                      0.2483
  Symmetry generation of equivalent positions                     0.0025
  Global summation overhead                                       0.0007
--------------------------------------------------------------------------------
  Total CPU time                                                  0.3371
--------------------------------------------------------------------------------


  Dump file written as example14.grs


  Job Finished at 15:23.31 28th July       2019                               

