********************************************************************************
*                       GENERAL UTILITY LATTICE PROGRAM                        *
*                                 Julian Gale                                  *
*                       Curtin Institute for Computation                       *
*                    School of Molecular and Life Sciences                     *
*                    Curtin University, Western Australia                      *
********************************************************************************
* Version = 6.0.0 * Last modified =   7th July 2020                            *
********************************************************************************
*  optimise     - perform optimisation run                                     *
*  conp         - constant pressure calculation                                *
*  phonon       - calculate phonons for final geometry                         *
*  distance     - calculate distances                                          *
********************************************************************************

  Job Started  at 11:50.30  8th July       2020                               

  Number of CPUs =     1

  Host name      = M-A0034725                              


  Total number of configurations input =      1

********************************************************************************
*  Input for Configuration =   1                                               *
********************************************************************************

  Formula = SiH4                                                        

  Number of irreducible atoms/shells =       5


  Total number atoms/shells =       5

  Dimensionality = 0               :  Cluster


  Charge on cluster =   0.000000


  Initial cluster dipoles : x =      0.000000 e.Angs
                            y =      0.000000 e.Angs
                            z =      0.000000 e.Angs

  Temperature of configuration =   0.00     K 

  Symmetry number =      1

  Cartesian coordinates of cluster :

--------------------------------------------------------------------------------
   No.  Atomic       x           y          z         Charge      Occupancy
        Label      (Angs)      (Angs)     (Angs)        (e)         (Frac)  
--------------------------------------------------------------------------------
      1 Si    c      0.0000      0.0000      0.0000     0.00000    1.000000    
      2 H     c      1.0000 *    1.0000 *    1.0000 *   0.00000    1.000000    
      3 H     c     -1.0000 *   -1.0000 *    1.0000 *   0.00000    1.000000    
      4 H     c      1.0000 *   -1.0000 *   -1.0000 *   0.00000    1.000000    
      5 H     c     -1.0000 *    1.0000 *   -1.0000 *   0.00000    1.000000    
--------------------------------------------------------------------------------



  Distance calculation :


  Cutoff for distances  =      2.000000 Angstroms

--------------------------------------------------------------------------------
  Asymmetric unit site  Full lattice sites    No.  Distance      No.  Distance
      No.   At.No.            At.No.                (Angs)             (Angs) 
--------------------------------------------------------------------------------
       1   Si    core        H     core         4    1.7321
--------------------------------------------------------------------------------
       2   H     core        Si    core         1    1.7321
--------------------------------------------------------------------------------
       3   H     core        Si    core         1    1.7321
--------------------------------------------------------------------------------
       4   H     core        Si    core         1    1.7321
--------------------------------------------------------------------------------
       5   H     core        Si    core         1    1.7321
--------------------------------------------------------------------------------


  Brillouin zone sampling points :

--------------------------------------------------------------------------------
  Point number          x          y          z            Weight
--------------------------------------------------------------------------------
        1           0.000000   0.000000   0.000000     1.00000000
--------------------------------------------------------------------------------


********************************************************************************
*  General input information                                                   *
********************************************************************************

  Species output for all configurations : 

--------------------------------------------------------------------------------
  Species    Type    Atomic    Atomic    Charge       Radii (Angs)     Library
                     Number     Mass       (e)     Cova   Ionic  VDW   Symbol
--------------------------------------------------------------------------------
    Si       Core       14      28.09   0.000000   1.200  0.000  2.100          
    H        Core        1       1.01   0.000000   0.370  0.000  1.080          
--------------------------------------------------------------------------------


  Accuracy factor for short range sums = 12.000

  Electrostatics method = Direct Coulomb

  Analytic derivatives to be used

  Time limit = Infinity

  Maximum range for interatomic potentials =    100000.000000 Angstroms

  Brenner 1990 and Dyson-Smith 1996 potential to be used 


********************************************************************************
*  Output for configuration   1                                                *
********************************************************************************


  Components of energy : 

--------------------------------------------------------------------------------
  Interatomic potentials     =           0.00000000 eV    
  Brenner potentials         =          -8.73851674 eV    
  Monopole - monopole (real) =           0.00000000 eV    
--------------------------------------------------------------------------------
  Total lattice energy       =          -8.73851674 eV    
--------------------------------------------------------------------------------
  Total lattice energy       =            -843.1333 kJ/mol
--------------------------------------------------------------------------------


  Number of variables =       12

  Maximum number of calculations  =          1000
  Maximum Hessian update interval =            10
  Maximum step size               =   1.000000000
  Maximum parameter tolerance     =   0.000010000
  Maximum function  tolerance     =   0.000010000
  Maximum gradient  tolerance     =   0.001000000
  Maximum gradient  component     =   0.010000000

  Symmetry not applied to optimisation

  Newton-Raphson optimiser to be used

  BFGS hessian update to be used

  Lower half triangular hessian to be used

  Start of cluster optimisation :

  Cycle:      0 Energy:        -8.738517  Gnorm:      0.961913  CPU:    0.008
  ** Hessian calculated **
  Cycle:      1 Energy:       -10.997324  Gnorm:      0.161128  CPU:    0.008
  Cycle:      2 Energy:       -11.147065  Gnorm:      0.000182  CPU:    0.008


  **** Optimisation achieved ****


  Final energy =     -11.14706532 eV
  Final Gnorm  =       0.00003625

  Components of energy : 

--------------------------------------------------------------------------------
  Interatomic potentials     =           0.00000000 eV    
  Brenner potentials         =         -11.14706532 eV    
  Monopole - monopole (real) =           0.00000000 eV    
--------------------------------------------------------------------------------
  Total lattice energy       =         -11.14706532 eV    
--------------------------------------------------------------------------------
  Total lattice energy       =           -1075.5214 kJ/mol
--------------------------------------------------------------------------------

  Final cartesian coordinates of atoms :

--------------------------------------------------------------------------------
   No.  Atomic        x           y          z          Radius
        Label       (Angs)      (Angs)     (Angs)       (Angs) 
--------------------------------------------------------------------------------
     1  Si    c     0.000000    0.000000    0.000000    0.000000
     2  H     c     0.853356    0.853356    0.853356    0.000000
     3  H     c    -0.853356   -0.853356    0.853356    0.000000
     4  H     c     0.853356   -0.853356   -0.853356    0.000000
     5  H     c    -0.853356    0.853356   -0.853356    0.000000
--------------------------------------------------------------------------------


  Final Cartesian derivatives :

--------------------------------------------------------------------------------
   No.  Atomic          x             y             z           Radius
        Label       (eV/Angs)     (eV/Angs)    (eV/Angs)      (eV/Angs)
--------------------------------------------------------------------------------
      1 Si    c       0.000000      0.000000      0.000000      0.000000
      2 H     c       0.000126      0.000126      0.000126      0.000000
      3 H     c      -0.000126     -0.000126      0.000126      0.000000
      4 H     c       0.000126     -0.000126     -0.000126      0.000000
      5 H     c      -0.000126      0.000126     -0.000126      0.000000
--------------------------------------------------------------------------------
  Maximum abs         0.000126      0.000126      0.000126      0.000000
--------------------------------------------------------------------------------


  Distance calculation :


  Cutoff for distances  =      2.000000 Angstroms

--------------------------------------------------------------------------------
  Asymmetric unit site  Full lattice sites    No.  Distance      No.  Distance
      No.   At.No.            At.No.                (Angs)             (Angs) 
--------------------------------------------------------------------------------
       1   Si    core        H     core         4    1.4781
--------------------------------------------------------------------------------
       2   H     core        Si    core         1    1.4781
--------------------------------------------------------------------------------
       3   H     core        Si    core         1    1.4781
--------------------------------------------------------------------------------
       4   H     core        Si    core         1    1.4781
--------------------------------------------------------------------------------
       5   H     core        Si    core         1    1.4781
--------------------------------------------------------------------------------




  Moment of inertia tensor (10^-46 x kgm^2): 

-------------------------------------------------------------------------------
                x           y           z           Principal axis system
-------------------------------------------------------------------------------
       x          0.98       -0.00       -0.00            0.977076
       y         -0.00        0.98        0.00            0.977076
       z         -0.00        0.00        0.98            0.977076
-------------------------------------------------------------------------------
  Centre of mass (Ang) =    -0.000000     0.000000    -0.000000
-------------------------------------------------------------------------------


  Vibrational Frequency Calculation : 

--------------------------------------------------------------------------------

  Frequencies (cm-1) [NB: Negative implies an imaginary mode]:

   -0.00   -0.00    0.00    6.29    6.29    6.29  370.59  370.59  480.45
  480.45  480.45 2069.80 2233.09 2233.09 2233.09


--------------------------------------------------------------------------------
  Vibrational properties (for cluster):  Temperature  =       0.000 K
--------------------------------------------------------------------------------
  Zero point energy            =        0.678918 eV
--------------------------------------------------------------------------------

  Time to end of optimisation =       0.0108 seconds


  Peak dynamic memory used =       1.79 MB 


  Timing analysis for GULP :

--------------------------------------------------------------------------------
  Task / Subroutine                                          Time (Seconds)
--------------------------------------------------------------------------------
  Calculation of Brenner energy and derivatives                   0.0054
--------------------------------------------------------------------------------
  Total CPU time                                                  0.0108
--------------------------------------------------------------------------------


  Job Finished at 11:50.30  8th July       2020                               

