********************************************************************************
*                       GENERAL UTILITY LATTICE PROGRAM                        *
*                                 Julian Gale                                  *
*                       Curtin Institute for Computation                       *
*                    School of Molecular and Life Sciences                     *
*                    Curtin University, Western Australia                      *
********************************************************************************
* Version = 6.0.0 * Last modified =   7th July 2020                            *
********************************************************************************
*  fit          - perform fitting run                                          *
*  noflags      - no flags to be read in, assumed to all be zero               *
*  c6           - use real and reciprocal space sum for C6 terms               *
*  molecule     - molecule option activated, Coulomb subtract within molecule  *
********************************************************************************
* example of a molecular crystal - urea                                        *
* energy surface fit, rather than empirical structure fit                      *
* fit bonded potentials to C to surface from distorting                        *
* C along z axis - energies are not real ones!                                 *
********************************************************************************


  Job Started  at 11:50.03  8th July       2020                               

  Number of CPUs =     1

  Host name      = M-A0034725                              


  Total number of configurations input =      4

********************************************************************************
*  Input for Configuration =   1                                               *
********************************************************************************

  Formula = C2O2N4H8                                                    

  Number of irreducible atoms/shells =       5


  Total number atoms/shells =      16

  Dimensionality = 3               :  Bulk   


  Symmetry :

  Crystal family                   :  Tetragonal  
  Crystal class  (Groth - 1921)    :  Tetragonal Scalenohedral             

  Space group (noncentrosymmetric) :  P -4 21 M       

  Patterson group                  :  P 4/m m m

  Cartesian lattice vectors (Angstroms) :

        5.565000    0.000000    0.000000
        0.000000    5.565000    0.000000
        0.000000    0.000000    4.684000

  Cell parameters (Angstroms/Degrees):

  a =       5.5650    alpha =  90.0000
  b =       5.5650    beta  =  90.0000
  c =       4.6840    gamma =  90.0000

  Initial cell volume =         145.059850 Angs**3

  Temperature of configuration =   0.00     K 

  Pressure of configuration =         0.000 GPa 

  Fractional coordinates of asymmetric unit :

--------------------------------------------------------------------------------
   No.  Atomic       x           y          z         Charge      Occupancy
        Label      (Frac)      (Frac)     (Frac)        (e)         (Frac)  
--------------------------------------------------------------------------------
      1 C     c    0.000000    0.500000    0.326000     0.38000    1.000000    
      2 O     c    0.000000    0.500000    0.585300    -0.38000    1.000000    
      3 N     c    0.145900    0.645900    0.176600    -0.83000    1.000000    
      4 H     c    0.257500    0.757500    0.282700     0.41500    1.000000    
      5 H     c    0.144100    0.644100    0.962000     0.41500    1.000000    
--------------------------------------------------------------------------------



  Molecule list generated from bond lengths :

  Total number of molecules =     2

--------------------------------------------------------------------------------
Molecule No./:  Atoms
Periodicity  :  
--------------------------------------------------------------------------------
     1  0    : C    c     1 O    c     3 N    c     5 N    c     6 H    c     9
             : H    c    10 H    c    13 H    c    14
     2  0    : C    c     2 O    c     4 N    c     7 N    c     8 H    c    11
             : H    c    12 H    c    15 H    c    16
--------------------------------------------------------------------------------

  Constraints : 

--------------------------------------------------------------------------------
  Constraint no.      Unconstrained     Constrained    Coefficient    Offset
                         Variable         Variable
--------------------------------------------------------------------------------
           1              Strain 1        Strain 2       1.00000      0.0000
           2                 3 x             3 y         1.00000      0.5000
           3                 4 x             4 y         1.00000      0.5000
           4                 5 x             5 y         1.00000      0.5000
--------------------------------------------------------------------------------


********************************************************************************
*  Input for Configuration =   2                                               *
********************************************************************************

  Formula = C2O2N4H8                                                    

  Number of irreducible atoms/shells =       5


  Total number atoms/shells =      16

  Dimensionality = 3               :  Bulk   


  Symmetry :

  Crystal family                   :  Tetragonal  
  Crystal class  (Groth - 1921)    :  Tetragonal Scalenohedral             

  Space group (noncentrosymmetric) :  P -4 21 M       

  Patterson group                  :  P 4/m m m

  Cartesian lattice vectors (Angstroms) :

        5.565000    0.000000    0.000000
        0.000000    5.565000    0.000000
        0.000000    0.000000    4.684000

  Cell parameters (Angstroms/Degrees):

  a =       5.5650    alpha =  90.0000
  b =       5.5650    beta  =  90.0000
  c =       4.6840    gamma =  90.0000

  Initial cell volume =         145.059850 Angs**3

  Temperature of configuration =   0.00     K 

  Pressure of configuration =         0.000 GPa 

  Fractional coordinates of asymmetric unit :

--------------------------------------------------------------------------------
   No.  Atomic       x           y          z         Charge      Occupancy
        Label      (Frac)      (Frac)     (Frac)        (e)         (Frac)  
--------------------------------------------------------------------------------
      1 C     c    0.000000    0.500000    0.327000     0.38000    1.000000    
      2 O     c    0.000000    0.500000    0.585300    -0.38000    1.000000    
      3 N     c    0.145900    0.645900    0.176600    -0.83000    1.000000    
      4 H     c    0.257500    0.757500    0.282700     0.41500    1.000000    
      5 H     c    0.144100    0.644100    0.962000     0.41500    1.000000    
--------------------------------------------------------------------------------



  Molecule list generated from bond lengths :

  Total number of molecules =     2

--------------------------------------------------------------------------------
Molecule No./:  Atoms
Periodicity  :  
--------------------------------------------------------------------------------
     1  0    : C    c     1 O    c     3 N    c     5 N    c     6 H    c     9
             : H    c    10 H    c    13 H    c    14
     2  0    : C    c     2 O    c     4 N    c     7 N    c     8 H    c    11
             : H    c    12 H    c    15 H    c    16
--------------------------------------------------------------------------------

  Constraints : 

--------------------------------------------------------------------------------
  Constraint no.      Unconstrained     Constrained    Coefficient    Offset
                         Variable         Variable
--------------------------------------------------------------------------------
           1              Strain 1        Strain 2       1.00000      0.0000
           2                 3 x             3 y         1.00000      0.5000
           3                 4 x             4 y         1.00000      0.5000
           4                 5 x             5 y         1.00000      0.5000
--------------------------------------------------------------------------------


********************************************************************************
*  Input for Configuration =   3                                               *
********************************************************************************

  Formula = C2O2N4H8                                                    

  Number of irreducible atoms/shells =       5


  Total number atoms/shells =      16

  Dimensionality = 3               :  Bulk   


  Symmetry :

  Crystal family                   :  Tetragonal  
  Crystal class  (Groth - 1921)    :  Tetragonal Scalenohedral             

  Space group (noncentrosymmetric) :  P -4 21 M       

  Patterson group                  :  P 4/m m m

  Cartesian lattice vectors (Angstroms) :

        5.565000    0.000000    0.000000
        0.000000    5.565000    0.000000
        0.000000    0.000000    4.684000

  Cell parameters (Angstroms/Degrees):

  a =       5.5650    alpha =  90.0000
  b =       5.5650    beta  =  90.0000
  c =       4.6840    gamma =  90.0000

  Initial cell volume =         145.059850 Angs**3

  Temperature of configuration =   0.00     K 

  Pressure of configuration =         0.000 GPa 

  Fractional coordinates of asymmetric unit :

--------------------------------------------------------------------------------
   No.  Atomic       x           y          z         Charge      Occupancy
        Label      (Frac)      (Frac)     (Frac)        (e)         (Frac)  
--------------------------------------------------------------------------------
      1 C     c    0.000000    0.500000    0.325000     0.38000    1.000000    
      2 O     c    0.000000    0.500000    0.585300    -0.38000    1.000000    
      3 N     c    0.145900    0.645900    0.176600    -0.83000    1.000000    
      4 H     c    0.257500    0.757500    0.282700     0.41500    1.000000    
      5 H     c    0.144100    0.644100    0.962000     0.41500    1.000000    
--------------------------------------------------------------------------------



  Molecule list generated from bond lengths :

  Total number of molecules =     2

--------------------------------------------------------------------------------
Molecule No./:  Atoms
Periodicity  :  
--------------------------------------------------------------------------------
     1  0    : C    c     1 O    c     3 N    c     5 N    c     6 H    c     9
             : H    c    10 H    c    13 H    c    14
     2  0    : C    c     2 O    c     4 N    c     7 N    c     8 H    c    11
             : H    c    12 H    c    15 H    c    16
--------------------------------------------------------------------------------

  Constraints : 

--------------------------------------------------------------------------------
  Constraint no.      Unconstrained     Constrained    Coefficient    Offset
                         Variable         Variable
--------------------------------------------------------------------------------
           1              Strain 1        Strain 2       1.00000      0.0000
           2                 3 x             3 y         1.00000      0.5000
           3                 4 x             4 y         1.00000      0.5000
           4                 5 x             5 y         1.00000      0.5000
--------------------------------------------------------------------------------


********************************************************************************
*  Input for Configuration =   4                                               *
********************************************************************************

  Formula = C2O2N4H8                                                    

  Number of irreducible atoms/shells =       5


  Total number atoms/shells =      16

  Dimensionality = 3               :  Bulk   


  Symmetry :

  Crystal family                   :  Tetragonal  
  Crystal class  (Groth - 1921)    :  Tetragonal Scalenohedral             

  Space group (noncentrosymmetric) :  P -4 21 M       

  Patterson group                  :  P 4/m m m

  Cartesian lattice vectors (Angstroms) :

        5.565000    0.000000    0.000000
        0.000000    5.565000    0.000000
        0.000000    0.000000    4.684000

  Cell parameters (Angstroms/Degrees):

  a =       5.5650    alpha =  90.0000
  b =       5.5650    beta  =  90.0000
  c =       4.6840    gamma =  90.0000

  Initial cell volume =         145.059850 Angs**3

  Temperature of configuration =   0.00     K 

  Pressure of configuration =         0.000 GPa 

  Fractional coordinates of asymmetric unit :

--------------------------------------------------------------------------------
   No.  Atomic       x           y          z         Charge      Occupancy
        Label      (Frac)      (Frac)     (Frac)        (e)         (Frac)  
--------------------------------------------------------------------------------
      1 C     c    0.000000    0.500000    0.328000     0.38000    1.000000    
      2 O     c    0.000000    0.500000    0.585300    -0.38000    1.000000    
      3 N     c    0.145900    0.645900    0.176600    -0.83000    1.000000    
      4 H     c    0.257500    0.757500    0.282700     0.41500    1.000000    
      5 H     c    0.144100    0.644100    0.962000     0.41500    1.000000    
--------------------------------------------------------------------------------



  Molecule list generated from bond lengths :

  Total number of molecules =     2

--------------------------------------------------------------------------------
Molecule No./:  Atoms
Periodicity  :  
--------------------------------------------------------------------------------
     1  0    : C    c     1 O    c     3 N    c     5 N    c     6 H    c     9
             : H    c    10 H    c    13 H    c    14
     2  0    : C    c     2 O    c     4 N    c     7 N    c     8 H    c    11
             : H    c    12 H    c    15 H    c    16
--------------------------------------------------------------------------------

  Constraints : 

--------------------------------------------------------------------------------
  Constraint no.      Unconstrained     Constrained    Coefficient    Offset
                         Variable         Variable
--------------------------------------------------------------------------------
           1              Strain 1        Strain 2       1.00000      0.0000
           2                 3 x             3 y         1.00000      0.5000
           3                 4 x             4 y         1.00000      0.5000
           4                 5 x             5 y         1.00000      0.5000
--------------------------------------------------------------------------------


********************************************************************************
*  General input information                                                   *
********************************************************************************

  Species output for all configurations : 

--------------------------------------------------------------------------------
  Species    Type    Atomic    Atomic    Charge       Radii (Angs)     Library
                     Number     Mass       (e)     Cova   Ionic  VDW   Symbol
--------------------------------------------------------------------------------
    C        Core        6      12.01   0.380000   0.770  0.000  1.530          
    O        Core        8      16.00  -0.380000   0.730  0.000  1.360          
    N        Core        7      14.01  -0.830000   0.750  0.000  1.480          
    H        Core        1       1.01   0.415000   0.370  0.000  1.080          
--------------------------------------------------------------------------------


  Lattice summation method               =    Ewald          (3-D)
                                         =    Parry          (2-D)
                                         =    Saunders et al (1-D)
  Accuracy factor for lattice sums       =   12.000


  Analytic derivatives to be used

  Time limit = Infinity

  Maximum range for interatomic potentials =    100000.000000 Angstroms

  C6 terms to be calculated in real and reciprocal space 

  Intramolecular potentials :

--------------------------------------------------------------------------------
Atom  Types   Potential      Parameter       Value         Units   Cutoffs(Ang)
  1     2                                                            Min /  Max 
--------------------------------------------------------------------------------
C    c O    c Morse         Morse  De        6.2880000    eV        0.000  1.600
                            Morse  a0        2.0600000    Ang^-1    
                            Morse  r0        1.2300000    Ang       
--------------------------------------------------------------------------------
C    c N    c Morse         Morse  De        4.2060000    eV        0.000  1.600
                            Morse  a0        2.0000000    Ang^-1    
                            Morse  r0        1.3200000    Ang       
--------------------------------------------------------------------------------
H    c N    c Morse         Morse  De        3.8160000    eV        0.000  1.600
                            Morse  a0        2.2800000    Ang^-1    
                            Morse  r0        1.0260000    Ang       
--------------------------------------------------------------------------------

  Intermolecular potentials :

--------------------------------------------------------------------------------
Atom  Types   Potential      Parameter       Value         Units   Cutoffs(Ang)
  1     2                                                            Min /  Max 
--------------------------------------------------------------------------------
C    c O    c Lennard       Lennard-Jones A  39031.570    eV*Ang^m  0.000 40.000
                            Lennard-Jones B  35.266000    eV*Ang^n  
                            Exponent m        12          None
                            Exponent n         6          None
--------------------------------------------------------------------------------
C    c N    c Lennard       Lennard-Jones A  112494.67    eV*Ang^m  0.000 40.000
                            Lennard-Jones B  55.387000    eV*Ang^n  
                            Exponent m        12          None
                            Exponent n         6          None
--------------------------------------------------------------------------------
O    c O    c Lennard       Lennard-Jones A  11833.864    eV*Ang^m  0.000 40.000
                            Lennard-Jones B  21.633000    eV*Ang^n  
                            Exponent m        12          None
                            Exponent n         6          None
--------------------------------------------------------------------------------
N    c O    c Lennard       Lennard-Jones A  34106.919    eV*Ang^m  0.000 40.000
                            Lennard-Jones B  33.977000    eV*Ang^n  
                            Exponent m        12          None
                            Exponent n         6          None
--------------------------------------------------------------------------------
N    c N    c Lennard       Lennard-Jones A  98301.108    eV*Ang^m  0.000 40.000
                            Lennard-Jones B  53.362000    eV*Ang^n  
                            Exponent m        12          None
                            Exponent n         6          None
--------------------------------------------------------------------------------
C    c C    c Lennard       Lennard-Jones A  128737.61    eV*Ang^m  0.000 40.000
                            Lennard-Jones B  57.488000    eV*Ang^n  
                            Exponent m        12          None
                            Exponent n         6          None
--------------------------------------------------------------------------------

  Energy shifts for configurations :

--------------------------------------------------------------------------------
      Configuration           Energy (eV)        Scale Factor
--------------------------------------------------------------------------------
             1                1.00000                 1.000
             2                1.00000                 1.000
             3                1.00000                 1.000
             4                1.00000                 1.000
--------------------------------------------------------------------------------


  General Three-body potentials :

--------------------------------------------------------------------------------
  Atoms       Potential      Parameter       Value         Units   Cutoffs(Ang)
  1 / 2 / 3                                                          Min /  Max 
--------------------------------------------------------------------------------
C     core    Harmonic      Three-body cnst  5.8970000    eV*rad^-2 0.000  1.600
N     core                  Three-body angl  121.00000    degrees   0.000  1.600
O     core                  Three-body k4    0.0000000    eV*rad^-4 0.000  3.000
                            Three-body k3    0.0000000    eV*rad^-3 
--------------------------------------------------------------------------------
N     core    Harmonic      Three-body cnst  3.2520000    eV*rad^-2 0.000  1.400
H     core                  Three-body angl  120.00000    degrees   0.000  1.600
C     core                  Three-body k4    0.0000000    eV*rad^-4 0.000  2.600
                            Three-body k3    0.0000000    eV*rad^-3 
--------------------------------------------------------------------------------
N     core    Harmonic      Three-body cnst  2.8620000    eV*rad^-2 0.000  1.400
H     core                  Three-body angl  120.00000    degrees   0.000  1.400
H     core                  Three-body k4    0.0000000    eV*rad^-4 0.000  2.300
                            Three-body k3    0.0000000    eV*rad^-3 
--------------------------------------------------------------------------------
C     core    Harmonic      Three-body cnst  8.8460000    eV*rad^-2 0.000  1.600
N     core                  Three-body angl  118.00000    degrees   0.000  1.600
N     core                  Three-body k4    0.0000000    eV*rad^-4 0.000  2.800
                            Three-body k3    0.0000000    eV*rad^-3 
--------------------------------------------------------------------------------

  General Four-body potentials :

--------------------------------------------------------------------------------
  Atoms       Potential      Parameter       Value         Units   Cutoffs(Ang)
  1 - 4                                                             Min /  Max 
--------------------------------------------------------------------------------
O     core    Standard      Torsional const 0.26020000    eV        0.000  1.400
C     core Phase = -  2                                             0.000  1.400
N     core                                                          0.000  1.300
H     core                                                          0.000  0.000
--------------------------------------------------------------------------------
N     core    Standard      Torsional const 0.21700000E-02eV        0.000  1.600
C     core Phase = -  2                                             0.000  1.600
N     core                                                          0.000  1.300
H     core                                                          0.000  0.000
--------------------------------------------------------------------------------
O     core    Standard      Torsional const 0.43400000    eV        0.000  1.600
C     core Phase = -  2                                             0.000  1.600
N     core                                                          0.000  3.000
N     core                                                          0.000  0.000
--------------------------------------------------------------------------------


  Number of variables   =    2
  Number of observables =    4

--------------------------------------------------------------------------------
   Observable no.  Type           Observable    Weight       Reference  Confign 
--------------------------------------------------------------------------------
          1        Energy           -3.357918      100.0000                1
          2        Energy           -3.085802      100.0000                2
          3        Energy           -3.113013      100.0000                3
          4        Energy           -2.541568      100.0000                4
--------------------------------------------------------------------------------

  Variables :

--------------------------------------------------------------------------------
     Parameter No.       Parameter Value          Parameter Type  Species
--------------------------------------------------------------------------------
             1                  1.000000          Energy shift        0
             2                  1.230000          Morse  r0      
--------------------------------------------------------------------------------

  Symmetry constraints used for fitting
  First derivatives of residuals to be used in fitting

  Maximum no. of cycles   =       5000
  Maximum step size       =  1000.0000
  Tolerance on parameters =  0.0000100
  Tolerance on function   =  0.0000100
  Tolerance on gradient   =  0.0001000
  Differencing interval   =  0.0001000

  Dumpfile to be written after every cycle

  Start of fitting :

  Cycle:      0  Sum sqs: 1333599.933571  Gnorm: 123564.333689  CPU:    0.055
  ** Hessian calculated **
  Cycle:      1  Sum sqs:  152463.817439  Gnorm:4747905.399294  CPU:    0.177
  Cycle:      2  Sum sqs:     495.805612  Gnorm:   7491.467089  CPU:    0.250
  Cycle:      3  Sum sqs:     416.205470  Gnorm:  60653.525362  CPU:    0.339
  Cycle:      4  Sum sqs:     357.474424  Gnorm:  72485.953732  CPU:    0.423
  Cycle:      5  Sum sqs:     291.218930  Gnorm:  10474.453788  CPU:    0.497
  Cycle:      6  Sum sqs:     266.547877  Gnorm:   1110.983877  CPU:    0.622
  Cycle:      7  Sum sqs:     236.866369  Gnorm:  31133.816524  CPU:    0.719
  Cycle:      8  Sum sqs:     224.185857  Gnorm:  44087.335495  CPU:    0.790
  Cycle:      9  Sum sqs:     121.153003  Gnorm:  19291.046244  CPU:    0.904
  Cycle:     10  Sum sqs:     116.345310  Gnorm:   4543.237905  CPU:    0.976
  Cycle:     11  Sum sqs:      96.113559  Gnorm:  14338.823103  CPU:    1.097
  Cycle:     12  Sum sqs:      87.671063  Gnorm:  21608.367222  CPU:    1.170
  Cycle:     13  Sum sqs:      68.306099  Gnorm:   3033.573161  CPU:    1.243
  Cycle:     14  Sum sqs:      59.242803  Gnorm:   3726.839053  CPU:    1.371
  Cycle:     15  Sum sqs:      56.092674  Gnorm:  12413.366511  CPU:    1.437
  Cycle:     16  Sum sqs:      51.175641  Gnorm:   1938.138284  CPU:    1.510
  Cycle:     17  Sum sqs:      42.803413  Gnorm:   5494.339715  CPU:    1.614
  Cycle:     18  Sum sqs:      40.017112  Gnorm:   9347.875334  CPU:    1.678
  Cycle:     19  Sum sqs:      32.302110  Gnorm:   1698.434067  CPU:    1.742
  Cycle:     20  Sum sqs:      28.851123  Gnorm:   1327.561485  CPU:    1.828
  ** Hessian calculated **
  Cycle:     21  Sum sqs:      28.755576  Gnorm:    186.627351  CPU:    1.931
  Cycle:     22  Sum sqs:      26.721711  Gnorm:    698.144309  CPU:    2.027
  Cycle:     23  Sum sqs:      24.472420  Gnorm:   2632.622112  CPU:    2.107
  Cycle:     24  Sum sqs:      23.457064  Gnorm:   4757.427524  CPU:    2.171
  Cycle:     25  Sum sqs:      21.078874  Gnorm:    230.378714  CPU:    2.242
  Cycle:     26  Sum sqs:      20.217297  Gnorm:    205.795581  CPU:    2.345
  Cycle:     27  Sum sqs:      19.062056  Gnorm:   1352.157266  CPU:    2.424
  Cycle:     28  Sum sqs:      18.609576  Gnorm:   2706.646771  CPU:    2.487
  Cycle:     29  Sum sqs:      17.601478  Gnorm:     40.092611  CPU:    2.567
  Cycle:     30  Sum sqs:      16.935526  Gnorm:    425.810018  CPU:    2.662
  Cycle:     31  Sum sqs:      16.498783  Gnorm:   1246.076804  CPU:    2.741
  Cycle:     32  Sum sqs:      15.956893  Gnorm:   1389.262100  CPU:    2.817
  Cycle:     33  Sum sqs:      15.569975  Gnorm:     25.828486  CPU:    2.901
  Cycle:     34  Sum sqs:      15.385998  Gnorm:    227.795198  CPU:    2.989
  Cycle:     35  Sum sqs:      15.314512  Gnorm:    606.948070  CPU:    3.055
  Cycle:     36  Sum sqs:      15.236318  Gnorm:     27.901766  CPU:    3.127
  Cycle:     37  Sum sqs:      15.186761  Gnorm:    172.591280  CPU:    3.200
  Cycle:     38  Sum sqs:      15.176381  Gnorm:     26.246302  CPU:    3.272
  Cycle:     39  Sum sqs:      15.174748  Gnorm:     13.073749  CPU:    3.345
  Cycle:     40  Sum sqs:      15.174692  Gnorm:      0.956682  CPU:    3.417
  ** Hessian calculated **
  Cycle:     41  Sum sqs:      15.174692  Gnorm:      0.067387  CPU:    3.524


  **** Fit completed successfully ****


  Final sum of squares =            15.174692

  Final gradient norm  =             0.067387

  Final values of parameters :

--------------------------------------------------------------------------------
 Parameter No.    Parameter        Parameter      Parameter Type  Species
                  Original         Final                                 
--------------------------------------------------------------------------------
         1              1.000000        55.504919 Energy shift        0
         2              1.230000         1.411742 Morse  r0      
--------------------------------------------------------------------------------


  Final values of numerical parameter gradients :

--------------------------------------------------------------------------------
     Parameter No.       Parameter Gradient      Parameter Type  Species
--------------------------------------------------------------------------------
             1                  0.000613          Energy shift        0
             2                  0.067384          Morse  r0      
--------------------------------------------------------------------------------


  Final values of residuals :

--------------------------------------------------------------------------------
   Observable no.  Type            Observable   Calculated    Residual  Error(%)
--------------------------------------------------------------------------------
          1        Energy            -3.35792     -3.12924      5.22918    6.810
          2        Energy            -3.08580     -2.92882      2.46426    5.087
          3        Energy            -3.11301     -3.32083      4.31873   -6.676
          4        Energy            -2.54157     -2.71940      3.16253   -6.997
--------------------------------------------------------------------------------

  Comparison of initial and final observables :

--------------------------------------------------------------------------------
   Observable no.  Type            Observable   Initial       Final             
--------------------------------------------------------------------------------
          1        Energy            -3.35792    -60.77898     -3.12924
          2        Energy            -3.08580    -60.75533     -2.92882
          3        Energy            -3.11301    -60.79826     -3.32083
          4        Energy            -2.54157    -60.72724     -2.71940
--------------------------------------------------------------------------------

  Maximum range for interatomic potentials =    100000.000000 Angstroms

  C6 terms to be calculated in real and reciprocal space 

  Intramolecular potentials :

--------------------------------------------------------------------------------
Atom  Types   Potential      Parameter       Value         Units   Cutoffs(Ang)
  1     2                                                            Min /  Max 
--------------------------------------------------------------------------------
C    c O    c Morse         Morse  De        6.2880000    eV        0.000  1.600
                            Morse  a0        2.0600000    Ang^-1    
                            Morse  r0        1.4117419    Ang       
--------------------------------------------------------------------------------
C    c N    c Morse         Morse  De        4.2060000    eV        0.000  1.600
                            Morse  a0        2.0000000    Ang^-1    
                            Morse  r0        1.3200000    Ang       
--------------------------------------------------------------------------------
H    c N    c Morse         Morse  De        3.8160000    eV        0.000  1.600
                            Morse  a0        2.2800000    Ang^-1    
                            Morse  r0        1.0260000    Ang       
--------------------------------------------------------------------------------

  Intermolecular potentials :

--------------------------------------------------------------------------------
Atom  Types   Potential      Parameter       Value         Units   Cutoffs(Ang)
  1     2                                                            Min /  Max 
--------------------------------------------------------------------------------
C    c O    c Lennard       Lennard-Jones A  39031.570    eV*Ang^m  0.000 40.000
                            Lennard-Jones B  35.266000    eV*Ang^n  
                            Exponent m        12          None
                            Exponent n         6          None
--------------------------------------------------------------------------------
C    c N    c Lennard       Lennard-Jones A  112494.67    eV*Ang^m  0.000 40.000
                            Lennard-Jones B  55.387000    eV*Ang^n  
                            Exponent m        12          None
                            Exponent n         6          None
--------------------------------------------------------------------------------
O    c O    c Lennard       Lennard-Jones A  11833.864    eV*Ang^m  0.000 40.000
                            Lennard-Jones B  21.633000    eV*Ang^n  
                            Exponent m        12          None
                            Exponent n         6          None
--------------------------------------------------------------------------------
N    c O    c Lennard       Lennard-Jones A  34106.919    eV*Ang^m  0.000 40.000
                            Lennard-Jones B  33.977000    eV*Ang^n  
                            Exponent m        12          None
                            Exponent n         6          None
--------------------------------------------------------------------------------
N    c N    c Lennard       Lennard-Jones A  98301.108    eV*Ang^m  0.000 40.000
                            Lennard-Jones B  53.362000    eV*Ang^n  
                            Exponent m        12          None
                            Exponent n         6          None
--------------------------------------------------------------------------------
C    c C    c Lennard       Lennard-Jones A  128737.61    eV*Ang^m  0.000 40.000
                            Lennard-Jones B  57.488000    eV*Ang^n  
                            Exponent m        12          None
                            Exponent n         6          None
--------------------------------------------------------------------------------

  Energy shifts for configurations :

--------------------------------------------------------------------------------
      Configuration           Energy (eV)        Scale Factor
--------------------------------------------------------------------------------
             1                55.5049                 1.000
             2                55.5049                 1.000
             3                55.5049                 1.000
             4                55.5049                 1.000
--------------------------------------------------------------------------------


  General Three-body potentials :

--------------------------------------------------------------------------------
  Atoms       Potential      Parameter       Value         Units   Cutoffs(Ang)
  1 / 2 / 3                                                          Min /  Max 
--------------------------------------------------------------------------------
C     core    Harmonic      Three-body cnst  5.8970000    eV*rad^-2 0.000  1.600
N     core                  Three-body angl  121.00000    degrees   0.000  1.600
O     core                  Three-body k4    0.0000000    eV*rad^-4 0.000  3.000
                            Three-body k3    0.0000000    eV*rad^-3 
--------------------------------------------------------------------------------
N     core    Harmonic      Three-body cnst  3.2520000    eV*rad^-2 0.000  1.400
H     core                  Three-body angl  120.00000    degrees   0.000  1.600
C     core                  Three-body k4    0.0000000    eV*rad^-4 0.000  2.600
                            Three-body k3    0.0000000    eV*rad^-3 
--------------------------------------------------------------------------------
N     core    Harmonic      Three-body cnst  2.8620000    eV*rad^-2 0.000  1.400
H     core                  Three-body angl  120.00000    degrees   0.000  1.400
H     core                  Three-body k4    0.0000000    eV*rad^-4 0.000  2.300
                            Three-body k3    0.0000000    eV*rad^-3 
--------------------------------------------------------------------------------
C     core    Harmonic      Three-body cnst  8.8460000    eV*rad^-2 0.000  1.600
N     core                  Three-body angl  118.00000    degrees   0.000  1.600
N     core                  Three-body k4    0.0000000    eV*rad^-4 0.000  2.800
                            Three-body k3    0.0000000    eV*rad^-3 
--------------------------------------------------------------------------------

  General Four-body potentials :

--------------------------------------------------------------------------------
  Atoms       Potential      Parameter       Value         Units   Cutoffs(Ang)
  1 - 4                                                             Min /  Max 
--------------------------------------------------------------------------------
O     core    Standard      Torsional const 0.26020000    eV        0.000  1.400
C     core Phase = -  2                                             0.000  1.400
N     core                                                          0.000  1.300
H     core                                                          0.000  0.000
--------------------------------------------------------------------------------
N     core    Standard      Torsional const 0.21700000E-02eV        0.000  1.600
C     core Phase = -  2                                             0.000  1.600
N     core                                                          0.000  1.300
H     core                                                          0.000  0.000
--------------------------------------------------------------------------------
O     core    Standard      Torsional const 0.43400000    eV        0.000  1.600
C     core Phase = -  2                                             0.000  1.600
N     core                                                          0.000  3.000
N     core                                                          0.000  0.000
--------------------------------------------------------------------------------



  Total time to end of fitting =       3.5325 seconds

********************************************************************************
*  Output for configuration   1                                                *
********************************************************************************


  Components of energy : 

--------------------------------------------------------------------------------
  Interatomic potentials     =         -55.54335060 eV    
  Three-body potentials      =           0.00410704 eV    
  Four-body potentials       =           0.00000000 eV    
  Improper torsions          =           0.00000000 eV    
  Out of plane potentials    =           0.00000000 eV    
  Monopole - monopole (real) =          14.81938481 eV    
  Monopole - monopole (recip)=         -16.22773784 eV    
  Monopole - monopole (total)=          -1.40835304 eV    
  Dispersion (real+recip)    =          -1.68656695 eV    
  Energy shift               =          55.50491950 eV    
--------------------------------------------------------------------------------
  Total lattice energy       =          -3.12924405 eV    
--------------------------------------------------------------------------------
  Total lattice energy       =            -301.9242 kJ/(mole unit cells)
--------------------------------------------------------------------------------

********************************************************************************
*  Output for configuration   2                                                *
********************************************************************************


  Components of energy : 

--------------------------------------------------------------------------------
  Interatomic potentials     =         -55.34936897 eV    
  Three-body potentials      =           0.00735094 eV    
  Four-body potentials       =           0.00000000 eV    
  Improper torsions          =           0.00000000 eV    
  Out of plane potentials    =           0.00000000 eV    
  Monopole - monopole (real) =          14.82259804 eV    
  Monopole - monopole (recip)=         -16.22768625 eV    
  Monopole - monopole (total)=          -1.40508821 eV    
  Dispersion (real+recip)    =          -1.68663536 eV    
  Energy shift               =          55.50491950 eV    
--------------------------------------------------------------------------------
  Total lattice energy       =          -2.92882210 eV    
--------------------------------------------------------------------------------
  Total lattice energy       =            -282.5866 kJ/(mole unit cells)
--------------------------------------------------------------------------------

********************************************************************************
*  Output for configuration   3                                                *
********************************************************************************


  Components of energy : 

--------------------------------------------------------------------------------
  Interatomic potentials     =         -55.72954153 eV    
  Three-body potentials      =           0.00191828 eV    
  Four-body potentials       =           0.00000000 eV    
  Improper torsions          =           0.00000000 eV    
  Out of plane potentials    =           0.00000000 eV    
  Monopole - monopole (real) =          14.81617008 eV    
  Monopole - monopole (recip)=         -16.22778555 eV    
  Monopole - monopole (total)=          -1.41161547 eV    
  Dispersion (real+recip)    =          -1.68650942 eV    
  Energy shift               =          55.50491950 eV    
--------------------------------------------------------------------------------
  Total lattice energy       =          -3.32082864 eV    
--------------------------------------------------------------------------------
  Total lattice energy       =            -320.4092 kJ/(mole unit cells)
--------------------------------------------------------------------------------

********************************************************************************
*  Output for configuration   4                                                *
********************************************************************************


  Components of energy : 

--------------------------------------------------------------------------------
  Interatomic potentials     =         -55.14742584 eV    
  Three-body potentials      =           0.01163844 eV    
  Four-body potentials       =           0.00000000 eV    
  Improper torsions          =           0.00000000 eV    
  Out of plane potentials    =           0.00000000 eV    
  Monopole - monopole (real) =          14.82580980 eV    
  Monopole - monopole (recip)=         -16.22763078 eV    
  Monopole - monopole (total)=          -1.40182098 eV    
  Dispersion (real+recip)    =          -1.68671462 eV    
  Energy shift               =          55.50491950 eV    
--------------------------------------------------------------------------------
  Total lattice energy       =          -2.71940351 eV    
--------------------------------------------------------------------------------
  Total lattice energy       =            -262.3809 kJ/(mole unit cells)
--------------------------------------------------------------------------------

  Peak dynamic memory used =       1.89 MB 


  Timing analysis for GULP :

--------------------------------------------------------------------------------
  Task / Subroutine                                          Time (Seconds)
--------------------------------------------------------------------------------
  Calculation of reciprocal space energy and derivatives          0.0040
  Calculation of reciprocal space energy using symmetry           0.3910
  Calculation of real space energy using symmetry                 2.5612
  Calculation of three-body energy and derivatives                0.1228
  Calculation of four-body energy and derivatives                 0.1998
  Calculation of molecules and connectivity                       0.1005
  Sum of squares for fitting                                      0.1984
  Symmetry generation of equivalent positions                     0.0762
  Global summation overhead                                       0.0010
--------------------------------------------------------------------------------
  Total CPU time                                                  3.5414
--------------------------------------------------------------------------------


  Dump file written as example22.grs


  Job Finished at 11:50.07  8th July       2020                               

