********************************************************************************
*                       GENERAL UTILITY LATTICE PROGRAM                        *
*                                 Julian Gale                                  *
*                       Curtin Institute for Computation                       *
*                    School of Molecular and Life Sciences                     *
*                    Curtin University, Western Australia                      *
********************************************************************************
* Version = 6.0.0 * Last modified =   7th July 2020                            *
********************************************************************************
*  optimise     - perform optimisation run                                     *
*  conv         - constant volume calculation                                  *
*  molecule     - molecule option activated, Coulomb subtract within molecule  *
*  fix_molecule - fix atoms of molecule as at the start of the run             *
*  rigid        - molecules will be treated as rigid bodies                    *
********************************************************************************

  Job Started  at 13:07.01  8th July       2020                               

  Number of CPUs =     1

  Host name      = M-A0034725                              


  Total number of configurations input =      1

********************************************************************************
*  Input for Configuration =   1 : urea_100_surf                               *
********************************************************************************

  Formula = H16N8O4C4                                                   

  Number of irreducible atoms/shells =      32


  Total number atoms/shells =      32

  Dimensionality = 2               :  Surface



  Surface Cartesian vectors (Angstroms) :

        4.695612    0.000000    0.000000
        0.000000    5.550830    0.000000

  Surface cell parameters (Angstroms/Degrees):

  a =       4.6956    alpha =  90.0000
  b =       5.5508

  Initial surface area   =     26.064544 Angs**2

  Initial surface dipole =     -0.000019 e.Angs

  Temperature of configuration =   0.00     K 

  Mixed fractional/Cartesian coordinates of surface :

--------------------------------------------------------------------------------
   No.  Atomic       x           y          z         Charge      Occupancy
        Label      (Frac)      (Frac)     (Angs)        (e)         (Frac)  
--------------------------------------------------------------------------------
  Region 1 : 
--------------------------------------------------------------------------------
      1 H     c    0.336290    0.738322     -1.3229     0.41500    1.000000    
      2 N     c    0.239986    0.857067     -1.9820    -0.83000    1.000000    
      3 H     c    0.019409    0.862142     -2.0102     0.41500    1.000000    
      4 O     c    0.647143    1.000000     -2.7754    -0.38000    1.000000    
      5 C     c    0.384974    0.000001     -2.7754     0.38000    1.000000    
      6 H     c    0.019408    0.137859     -3.5406     0.41500    1.000000    
      7 N     c    0.239987    0.142932     -3.5688    -0.83000    1.000000    
      8 H     c    0.336290    0.261678     -4.2279     0.41500    1.000000    
--------------------------------------------------------------------------------
  Region 2 :  Rigid translation fixed in xyz
--------------------------------------------------------------------------------
      9 H     c    0.722685    0.761677     -4.0983     0.41500    1.000000    
     10 N     c    0.818990    0.642932     -4.7574    -0.83000    1.000000    
     11 H     c    0.039568    0.637859     -4.7856     0.41500    1.000000    
     12 O     c    0.411834    0.500000     -5.5508    -0.38000    1.000000    
     13 C     c    0.674000    0.500000     -5.5508     0.38000    1.000000    
     14 H     c    0.039568    0.362141     -6.3161     0.41500    1.000000    
     15 N     c    0.818990    0.357068     -6.3442    -0.83000    1.000000    
     16 H     c    0.722685    0.238323     -7.0034     0.41500    1.000000    
--------------------------------------------------------------------------------
  Region 3 :  Rigid translation fixed in xy 
--------------------------------------------------------------------------------
     17 H     c    0.336290    0.738322     -6.8737     0.41500    1.000000    
     18 N     c    0.239986    0.857067     -7.5328    -0.83000    1.000000    
     19 H     c    0.019409    0.862142     -7.5610     0.41500    1.000000    
     20 O     c    0.647143    1.000000     -8.3262    -0.38000    1.000000    
     21 C     c    0.384974    0.000001     -8.3262     0.38000    1.000000    
     22 H     c    0.019408    0.137859     -9.0915     0.41500    1.000000    
     23 N     c    0.239987    0.142932     -9.1196    -0.83000    1.000000    
     24 H     c    0.336290    0.261678     -9.7788     0.41500    1.000000    
     25 H     c    0.722685    0.238323     -1.4525     0.41500    1.000000    
     26 H     c    0.722685    0.761677      1.4525     0.41500    1.000000    
     27 N     c    0.818990    0.642932      0.7934    -0.83000    1.000000    
     28 H     c    0.039568    0.637859      0.7652     0.41500    1.000000    
     29 O     c    0.411834    0.500000      0.0000    -0.38000    1.000000    
     30 C     c    0.674000    0.500000      0.0000     0.38000    1.000000    
     31 H     c    0.039568    0.362141     -0.7652     0.41500    1.000000    
     32 N     c    0.818990    0.357068     -0.7934    -0.83000    1.000000    
--------------------------------------------------------------------------------



  Growth Slice : 

  Number of formula units in slice =    1

  Mixed fractional/Cartesian coordinates

--------------------------------------------------------------------------------
   No.  Atomic       x           y          z         Charge      Occupancy
        Label      (Frac)      (Frac)     (Angs)        (e)         (Frac)  
--------------------------------------------------------------------------------
      1 H     c    0.336290    0.738322     -1.3229      0.4150    1.000000
      2 N     c    0.239986    0.857067     -1.9820     -0.8300    1.000000
      3 H     c    0.019409    0.862142     -2.0102      0.4150    1.000000
      4 O     c    0.647143    1.000000     -2.7754     -0.3800    1.000000
      5 C     c    0.384974    0.000001     -2.7754      0.3800    1.000000
      6 H     c    0.019408    0.137859     -3.5406      0.4150    1.000000
      7 N     c    0.239987    0.142932     -3.5688     -0.8300    1.000000
      8 H     c    0.336290    0.261678     -4.2279      0.4150    1.000000
--------------------------------------------------------------------------------



  Molecule list generated from bond lengths :

  Total number of molecules =     4

--------------------------------------------------------------------------------
Molecule No./:  Atoms
Periodicity  :  
--------------------------------------------------------------------------------
     1  0    : H    c     1 N    c     2 H    c     3 O    c     4 C    c     5
             : H    c     6 N    c     7 H    c     8
     2  0    : H    c     9 N    c    10 H    c    11 O    c    12 C    c    13
             : H    c    14 N    c    15 H    c    16
     3  0    : H    c    17 N    c    18 H    c    19 O    c    20 C    c    21
             : H    c    22 N    c    23 H    c    24
     4  0    : H    c    25 H    c    26 N    c    27 H    c    28 O    c    29
             : C    c    30 H    c    31 N    c    32
--------------------------------------------------------------------------------

  Constraints : 

--------------------------------------------------------------------------------
  Constraint no.      Unconstrained     Constrained    Coefficient    Offset
                         Variable         Variable
--------------------------------------------------------------------------------
           1                 3 zcom          4 zcom      1.00000      8.3262
--------------------------------------------------------------------------------


********************************************************************************
*  General input information                                                   *
********************************************************************************

  Species output for all configurations : 

--------------------------------------------------------------------------------
  Species    Type    Atomic    Atomic    Charge       Radii (Angs)     Library
                     Number     Mass       (e)     Cova   Ionic  VDW   Symbol
--------------------------------------------------------------------------------
    H        Core        1       1.01   0.415000   0.370  0.000  1.080          
    N        Core        7      14.01  -0.830000   0.750  0.000  1.480          
    O        Core        8      16.00  -0.380000   0.730  0.000  1.360          
    C        Core        6      12.01   0.380000   0.770  0.000  1.530          
--------------------------------------------------------------------------------


  Lattice summation method               =    Ewald          (3-D)
                                         =    Parry          (2-D)
                                         =    Saunders et al (1-D)
  Accuracy factor for lattice sums       =   12.000


  Analytic derivatives to be used

  Time limit = Infinity

  Maximum range for interatomic potentials =    100000.000000 Angstroms

  Intramolecular potentials :

--------------------------------------------------------------------------------
Atom  Types   Potential      Parameter       Value         Units   Cutoffs(Ang)
  1     2                                                            Min /  Max 
--------------------------------------------------------------------------------
C    c O    c Morse         Morse  De        6.2880000    eV        0.000  1.600
                            Morse  a0        2.0600000    Ang^-1    
                            Morse  r0        1.2300000    Ang       
--------------------------------------------------------------------------------
C    c N    c Morse         Morse  De        4.2060000    eV        0.000  1.600
                            Morse  a0        2.0000000    Ang^-1    
                            Morse  r0        1.3200000    Ang       
--------------------------------------------------------------------------------
H    c N    c Morse         Morse  De        3.8160000    eV        0.000  1.600
                            Morse  a0        2.2800000    Ang^-1    
                            Morse  r0        1.0260000    Ang       
--------------------------------------------------------------------------------

  Intermolecular potentials :

--------------------------------------------------------------------------------
Atom  Types   Potential      Parameter       Value         Units   Cutoffs(Ang)
  1     2                                                            Min /  Max 
--------------------------------------------------------------------------------
C    c O    c Lennard       Lennard-Jones A  39031.570    eV*Ang^m  0.000 40.000
                            Lennard-Jones B  35.266000    eV*Ang^n  
                            Exponent m        12          None
                            Exponent n         6          None
--------------------------------------------------------------------------------
C    c N    c Lennard       Lennard-Jones A  112494.67    eV*Ang^m  0.000 40.000
                            Lennard-Jones B  55.387000    eV*Ang^n  
                            Exponent m        12          None
                            Exponent n         6          None
--------------------------------------------------------------------------------
O    c O    c Lennard       Lennard-Jones A  11833.864    eV*Ang^m  0.000 40.000
                            Lennard-Jones B  21.633000    eV*Ang^n  
                            Exponent m        12          None
                            Exponent n         6          None
--------------------------------------------------------------------------------
N    c O    c Lennard       Lennard-Jones A  34106.919    eV*Ang^m  0.000 40.000
                            Lennard-Jones B  33.977000    eV*Ang^n  
                            Exponent m        12          None
                            Exponent n         6          None
--------------------------------------------------------------------------------
N    c N    c Lennard       Lennard-Jones A  98301.108    eV*Ang^m  0.000 40.000
                            Lennard-Jones B  53.362000    eV*Ang^n  
                            Exponent m        12          None
                            Exponent n         6          None
--------------------------------------------------------------------------------
C    c C    c Lennard       Lennard-Jones A  128737.61    eV*Ang^m  0.000 40.000
                            Lennard-Jones B  57.488000    eV*Ang^n  
                            Exponent m        12          None
                            Exponent n         6          None
--------------------------------------------------------------------------------

  General Three-body potentials :

--------------------------------------------------------------------------------
  Atoms       Potential      Parameter       Value         Units   Cutoffs(Ang)
  1 / 2 / 3                                                          Min /  Max 
--------------------------------------------------------------------------------
C     core    Harmonic      Three-body cnst  5.8970000    eV*rad^-2 0.000  1.600
N     core                  Three-body angl  121.00000    degrees   0.000  1.600
O     core                  Three-body k4    0.0000000    eV*rad^-4 0.000  3.000
                            Three-body k3    0.0000000    eV*rad^-3 
--------------------------------------------------------------------------------
N     core    Harmonic      Three-body cnst  3.2520000    eV*rad^-2 0.000  1.400
H     core                  Three-body angl  120.00000    degrees   0.000  1.600
C     core                  Three-body k4    0.0000000    eV*rad^-4 0.000  2.600
                            Three-body k3    0.0000000    eV*rad^-3 
--------------------------------------------------------------------------------
N     core    Harmonic      Three-body cnst  2.8620000    eV*rad^-2 0.000  1.400
H     core                  Three-body angl  120.00000    degrees   0.000  1.400
H     core                  Three-body k4    0.0000000    eV*rad^-4 0.000  2.300
                            Three-body k3    0.0000000    eV*rad^-3 
--------------------------------------------------------------------------------
C     core    Harmonic      Three-body cnst  8.8460000    eV*rad^-2 0.000  1.600
N     core                  Three-body angl  118.00000    degrees   0.000  1.600
N     core                  Three-body k4    0.0000000    eV*rad^-4 0.000  2.800
                            Three-body k3    0.0000000    eV*rad^-3 
--------------------------------------------------------------------------------

  General Four-body potentials :

--------------------------------------------------------------------------------
  Atoms       Potential      Parameter       Value         Units   Cutoffs(Ang)
  1 - 4                                                             Min /  Max 
--------------------------------------------------------------------------------
O     core    Standard      Torsional const 0.26020000    eV        0.000  1.400
C     core Phase = -  2                                             0.000  1.400
N     core                                                          0.000  1.300
H     core                                                          0.000  0.000
--------------------------------------------------------------------------------
N     core    Standard      Torsional const 0.21700000E-02eV        0.000  1.600
C     core Phase = -  2                                             0.000  1.600
N     core                                                          0.000  1.300
H     core                                                          0.000  0.000
--------------------------------------------------------------------------------
O     core    Standard      Torsional const 0.43400000    eV        0.000  1.600
C     core Phase = -  2                                             0.000  1.600
N     core                                                          0.000  3.000
N     core                                                          0.000  0.000
--------------------------------------------------------------------------------

********************************************************************************
*  Output for configuration   1 : urea_100_surf                                *
********************************************************************************


  Components of energy : 

--------------------------------------------------------------------------------
  Interatomic potentials     =         -90.23167869 eV    
  Three-body potentials      =           0.01273266 eV    
  Four-body potentials       =           0.00000000 eV    
  Improper torsions          =           0.00000000 eV    
  Out of plane potentials    =           0.00000000 eV    
  Monopole - monopole (real) =          18.03207350 eV    
  Monopole - monopole (recip)=         -19.79462774 eV    
  Monopole - monopole (total)=          -1.76255424 eV    
  Region 1-2 interaction     =          -1.05689899 eV    
  Region 2-2 interaction     =         -30.43558824 eV    
--------------------------------------------------------------------------------
  Total lattice energy       =        -123.47398751 eV    
--------------------------------------------------------------------------------
  Total lattice energy       =          -11913.3523 kJ/(mole unit cells)
--------------------------------------------------------------------------------
  Bulk energy                =            -2.196662 eV    
  Surface energy (region 1)  =           -55.515723 J/m**2
--------------------------------------------------------------------------------
  Attachment energy          =          -1.05689873 eV    
  Attachment energy/unit     =          -1.05689873 eV    
--------------------------------------------------------------------------------


  Number of variables =        7

  Maximum number of calculations  =          1000
  Maximum Hessian update interval =            10
  Maximum step size               =   1.000000000
  Maximum parameter tolerance     =   0.000010000
  Maximum function  tolerance     =   0.000010000
  Maximum gradient  tolerance     =   0.001000000
  Maximum gradient  component     =   0.010000000

  Symmetry not applied to optimisation

  Newton-Raphson optimiser to be used

  BFGS hessian update to be used

  Lower half triangular hessian to be used

  Start of surface optimisation :

  Cycle:      0 Energy:      -123.473988  Gnorm:      0.040254  CPU:    0.016
  ** Hessian calculated **
  Cycle:      1 Energy:      -123.476499  Gnorm:      0.001291  CPU:    0.030


  **** Optimisation achieved ****


  Final energy =    -123.47650035 eV
  Final Gnorm  =       0.00003382

  Components of energy : 

--------------------------------------------------------------------------------
  Interatomic potentials     =         -90.23573510 eV    
  Three-body potentials      =           0.01273266 eV    
  Four-body potentials       =           0.00000000 eV    
  Improper torsions          =           0.00000000 eV    
  Out of plane potentials    =           0.00000000 eV    
  Monopole - monopole (real) =          18.03209635 eV    
  Monopole - monopole (recip)=         -19.79608962 eV    
  Monopole - monopole (total)=          -1.76399327 eV    
  Region 1-2 interaction     =          -1.05391640 eV    
  Region 2-2 interaction     =         -30.43558824 eV    
--------------------------------------------------------------------------------
  Total lattice energy       =        -123.47650035 eV    
--------------------------------------------------------------------------------
  Total lattice energy       =          -11913.5948 kJ/(mole unit cells)
--------------------------------------------------------------------------------
  Bulk energy                =            -2.196662 eV    
  Surface energy (region 1)  =           -55.518184 J/m**2
--------------------------------------------------------------------------------
  Attachment energy          =          -1.05169830 eV    
  Attachment energy/unit     =          -1.05169830 eV    
--------------------------------------------------------------------------------

  Final fractional/Cartesian coordinates of atoms :

--------------------------------------------------------------------------------
   No.  Atomic        x           y          z          Radius
        Label       (Frac)      (Frac)     (Angs)       (Angs) 
--------------------------------------------------------------------------------
     1  H     c     0.335313    1.727217   -1.397285    0.000000
     2  N     c     0.239100    1.849120   -2.038707    0.000000
     3  H     c     0.018536    1.853237   -2.073226    0.000000
     4  O     c     0.646345    1.998494   -2.793612    0.000000
     5  C     c     0.384187    0.997172   -2.802225    0.000000
     6  H     c     0.018738    1.137417   -3.555221    0.000000
     7  N     c     0.239310    1.143759   -3.575248    0.000000
     8  H     c     0.335697    1.266635   -4.210354    0.000000
     9  H     c     0.722685    0.761677   -4.098308    0.000000
    10  N     c     0.818990    0.642932   -4.757440    0.000000
    11  H     c     0.039568    0.637859   -4.785599    0.000000
    12  O     c     0.411834    0.500000   -5.550830    0.000000
    13  C     c     0.674000    0.500000   -5.550830    0.000000
    14  H     c     0.039568    0.362141   -6.316061    0.000000
    15  N     c     0.818990    0.357068   -6.344220    0.000000
    16  H     c     0.722685    0.238323   -7.003352    0.000000
    17  H     c     0.336290    1.738322   -6.888731    0.000000
    18  N     c     0.239986    1.857067   -7.547863    0.000000
    19  H     c     0.019409    1.862142   -7.576033    0.000000
    20  O     c     0.647143    2.000000   -8.341257    0.000000
    21  C     c     0.384974    1.000001   -8.341263    0.000000
    22  H     c     0.019408    1.137859   -9.106490    0.000000
    23  N     c     0.239987    1.142932   -9.134650    0.000000
    24  H     c     0.336290    1.261678   -9.793789    0.000000
    25  H     c     0.722685    0.238323   -1.467536    0.000000
    26  H     c     0.722685    0.761677    1.437508    0.000000
    27  N     c     0.818990    0.642932    0.778376    0.000000
    28  H     c     0.039568    0.637859    0.750217    0.000000
    29  O     c     0.411834    0.500000   -0.015014    0.000000
    30  C     c     0.674000    0.500000   -0.015014    0.000000
    31  H     c     0.039568    0.362141   -0.780245    0.000000
    32  N     c     0.818990    0.357068   -0.808404    0.000000
--------------------------------------------------------------------------------

  Final internal/Cartesian derivatives :

--------------------------------------------------------------------------------
   No.  Atomic          a             b             z           Radius
        Label          (eV)          (eV)       (eV/Angs)      (eV/Angs)
--------------------------------------------------------------------------------
--------------------------------------------------------------------------------
  Maximum abs         0.000000      0.000000      0.000000      0.000000
--------------------------------------------------------------------------------

  Final derivatives for centre of mass of rigid molecules: 

--------------------------------------------------------------------------------
   Molecule             a             b             z       
                       (eV)          (eV)       (eV/Angs)   
--------------------------------------------------------------------------------
      1               0.000068      0.000118      0.000010
      2               0.000000      0.000000      0.000000
      3               0.000000      0.000000     -0.000015
      4               0.000000      0.000000      0.000000
--------------------------------------------------------------------------------

  Final derivatives for quarternions of rigid molecules: 

--------------------------------------------------------------------------------
   Molecule             Q1            Q2            Q3      
                       (eV)          (eV)          (eV)     
--------------------------------------------------------------------------------
      1               0.000123     -0.000107      0.000103
      2               0.000000      0.000000      0.000000
      3               0.000000      0.000000      0.000000
      4               0.000000      0.000000      0.000000
--------------------------------------------------------------------------------

  Time to end of optimisation =       0.0421 seconds


  Peak dynamic memory used =       2.27 MB 


  Timing analysis for GULP :

--------------------------------------------------------------------------------
  Task / Subroutine                                          Time (Seconds)
--------------------------------------------------------------------------------
  Calculation of reciprocal space energy and derivatives          0.0056
  Calculation of real space energy and derivatives                0.0274
  Calculation of three-body energy and derivatives                0.0009
  Calculation of four-body energy and derivatives                 0.0012
  Calculation of molecules and connectivity                       0.0004
--------------------------------------------------------------------------------
  Total CPU time                                                  0.0421
--------------------------------------------------------------------------------


  Job Finished at 13:07.01  8th July       2020                               

