********************************************************************************
*                       GENERAL UTILITY LATTICE PROGRAM                        *
*                                 Julian Gale                                  *
*                       Curtin Institute for Computation                       *
*                    School of Molecular and Life Sciences                     *
*                    Curtin University, Western Australia                      *
********************************************************************************
* Version = 6.0.0 * Last modified =   7th July 2020                            *
********************************************************************************
*  gradient     - perform gradient run                                         *
*  conp         - constant pressure calculation                                *
*  property     - calculate properties for final geometry                      *
*  phonon       - calculate phonons for final geometry                         *
*  nosymmetry   - turn off symmetry after initial structure generation         *
*  molecule     - molecule option activated, Coulomb subtract within molecule  *
********************************************************************************

  Job Started  at 11:59.25  8th July       2020                               

  Number of CPUs =     1

  Host name      = M-A0034725                              


  Total number of configurations input =      1

********************************************************************************
*  Input for Configuration =   1                                               *
********************************************************************************

  Formula = C16O16N32H64                                                

  Number of irreducible atoms/shells =     128


  Total number atoms/shells =     128

  Dimensionality = 3               :  Bulk   



  Supercell dimensions :  x =   2  y =   2  z =   2

  Force constant supercell dimensions :  x =   1  y =   1  z =   1

  Cartesian lattice vectors (Angstroms) :

       11.130000    0.000000    0.000000
        0.000000   11.130000    0.000000
        0.000000    0.000000    9.368000

  Cell parameters (Angstroms/Degrees):

  a =      11.1300    alpha =  90.0000
  b =      11.1300    beta  =  90.0000
  c =       9.3680    gamma =  90.0000

  Initial cell volume =        1160.478799 Angs**3

  Shrinking factors =      4     4     4

  Temperature of configuration =   300.     K 

  Pressure of configuration =         0.000 GPa 

  Fractional coordinates of asymmetric unit :

--------------------------------------------------------------------------------
   No.  Atomic       x           y          z         Charge      Occupancy
        Label      (Frac)      (Frac)     (Frac)        (e)         (Frac)  
--------------------------------------------------------------------------------
      1 C     c    0.000000    0.250000    0.163000     1.20354    1.000000    
      2 C     c    0.000000 *  0.250000 *  0.663000 *   1.20354    1.000000    
      3 C     c    0.000000 *  0.750000 *  0.163000 *   1.20354    1.000000    
      4 C     c    0.000000 *  0.750000 *  0.663000 *   1.20354    1.000000    
      5 C     c    0.500000 *  0.250000 *  0.163000 *   1.20354    1.000000    
      6 C     c    0.500000 *  0.250000 *  0.663000 *   1.20354    1.000000    
      7 C     c    0.500000 *  0.750000 *  0.163000 *   1.20354    1.000000    
      8 C     c    0.500000 *  0.750000 *  0.663000 *   1.20354    1.000000    
      9 C     c    0.250000 *  0.000000 *  0.337000 *   1.20354    1.000000    
     10 C     c    0.250000 *  0.000000 *  0.837000 *   1.20354    1.000000    
     11 C     c    0.250000 *  0.500000 *  0.337000 *   1.20354    1.000000    
     12 C     c    0.250000 *  0.500000 *  0.837000 *   1.20354    1.000000    
     13 C     c    0.750000 *  0.000000 *  0.337000 *   1.20354    1.000000    
     14 C     c    0.750000 *  0.000000 *  0.837000 *   1.20354    1.000000    
     15 C     c    0.750000 *  0.500000 *  0.337000 *   1.20354    1.000000    
     16 C     c    0.750000 *  0.500000 *  0.837000 *   1.20354    1.000000    
     17 O     c    0.000000 *  0.250000 *  0.297650 *  -0.90940    1.000000    
     18 O     c    0.000000 *  0.250000 *  0.797650 *  -0.90940    1.000000    
     19 O     c    0.000000 *  0.750000 *  0.297650 *  -0.90940    1.000000    
     20 O     c    0.000000 *  0.750000 *  0.797650 *  -0.90940    1.000000    
     21 O     c    0.500000 *  0.250000 *  0.297650 *  -0.90940    1.000000    
     22 O     c    0.500000 *  0.250000 *  0.797650 *  -0.90940    1.000000    
     23 O     c    0.500000 *  0.750000 *  0.297650 *  -0.90940    1.000000    
     24 O     c    0.500000 *  0.750000 *  0.797650 *  -0.90940    1.000000    
     25 O     c    0.250000 *  0.000000 *  0.202350 *  -0.90940    1.000000    
     26 O     c    0.250000 *  0.000000 *  0.702350 *  -0.90940    1.000000    
     27 O     c    0.250000 *  0.500000 *  0.202350 *  -0.90940    1.000000    
     28 O     c    0.250000 *  0.500000 *  0.702350 *  -0.90940    1.000000    
     29 O     c    0.750000 *  0.000000 *  0.202350 *  -0.90940    1.000000    
     30 O     c    0.750000 *  0.000000 *  0.702350 *  -0.90940    1.000000    
     31 O     c    0.750000 *  0.500000 *  0.202350 *  -0.90940    1.000000    
     32 O     c    0.750000 *  0.500000 *  0.702350 *  -0.90940    1.000000    
     33 N     c    0.072950 *  0.322950 *  0.088300 *  -0.46096    1.000000    
     34 N     c    0.072950 *  0.322950 *  0.588300 *  -0.46096    1.000000    
     35 N     c    0.072950 *  0.822950 *  0.088300 *  -0.46096    1.000000    
     36 N     c    0.072950 *  0.822950 *  0.588300 *  -0.46096    1.000000    
     37 N     c    0.572950 *  0.322950 *  0.088300 *  -0.46096    1.000000    
     38 N     c    0.572950 *  0.322950 *  0.588300 *  -0.46096    1.000000    
     39 N     c    0.572950 *  0.822950 *  0.088300 *  -0.46096    1.000000    
     40 N     c    0.572950 *  0.822950 *  0.588300 *  -0.46096    1.000000    
     41 N     c    0.427050 *  0.177050 *  0.088300 *  -0.46096    1.000000    
     42 N     c    0.427050 *  0.177050 *  0.588300 *  -0.46096    1.000000    
     43 N     c    0.427050 *  0.677050 *  0.088300 *  -0.46096    1.000000    
     44 N     c    0.427050 *  0.677050 *  0.588300 *  -0.46096    1.000000    
     45 N     c    0.927050 *  0.177050 *  0.088300 *  -0.46096    1.000000    
     46 N     c    0.927050 *  0.177050 *  0.588300 *  -0.46096    1.000000    
     47 N     c    0.927050 *  0.677050 *  0.088300 *  -0.46096    1.000000    
     48 N     c    0.927050 *  0.677050 *  0.588300 *  -0.46096    1.000000    
     49 N     c    0.322950 *  0.427050 *  0.411700 *  -0.46096    1.000000    
     50 N     c    0.322950 *  0.427050 *  0.911700 *  -0.46096    1.000000    
     51 N     c    0.322950 *  0.927050 *  0.411700 *  -0.46096    1.000000    
     52 N     c    0.322950 *  0.927050 *  0.911700 *  -0.46096    1.000000    
     53 N     c    0.822950 *  0.427050 *  0.411700 *  -0.46096    1.000000    
     54 N     c    0.822950 *  0.427050 *  0.911700 *  -0.46096    1.000000    
     55 N     c    0.822950 *  0.927050 *  0.411700 *  -0.46096    1.000000    
     56 N     c    0.822950 *  0.927050 *  0.911700 *  -0.46096    1.000000    
     57 N     c    0.177050 *  0.072950 *  0.411700 *  -0.46096    1.000000    
     58 N     c    0.177050 *  0.072950 *  0.911700 *  -0.46096    1.000000    
     59 N     c    0.177050 *  0.572950 *  0.411700 *  -0.46096    1.000000    
     60 N     c    0.177050 *  0.572950 *  0.911700 *  -0.46096    1.000000    
     61 N     c    0.677050 *  0.072950 *  0.411700 *  -0.46096    1.000000    
     62 N     c    0.677050 *  0.072950 *  0.911700 *  -0.46096    1.000000    
     63 N     c    0.677050 *  0.572950 *  0.411700 *  -0.46096    1.000000    
     64 N     c    0.677050 *  0.572950 *  0.911700 *  -0.46096    1.000000    
     65 H     c    0.128750 *  0.378750 *  0.141350 *   0.15695    1.000000    
     66 H     c    0.128750 *  0.378750 *  0.641350 *   0.15695    1.000000    
     67 H     c    0.128750 *  0.878750 *  0.141350 *   0.15695    1.000000    
     68 H     c    0.128750 *  0.878750 *  0.641350 *   0.15695    1.000000    
     69 H     c    0.628750 *  0.378750 *  0.141350 *   0.15695    1.000000    
     70 H     c    0.628750 *  0.378750 *  0.641350 *   0.15695    1.000000    
     71 H     c    0.628750 *  0.878750 *  0.141350 *   0.15695    1.000000    
     72 H     c    0.628750 *  0.878750 *  0.641350 *   0.15695    1.000000    
     73 H     c    0.371250 *  0.121250 *  0.141350 *   0.15695    1.000000    
     74 H     c    0.371250 *  0.121250 *  0.641350 *   0.15695    1.000000    
     75 H     c    0.371250 *  0.621250 *  0.141350 *   0.15695    1.000000    
     76 H     c    0.371250 *  0.621250 *  0.641350 *   0.15695    1.000000    
     77 H     c    0.871250 *  0.121250 *  0.141350 *   0.15695    1.000000    
     78 H     c    0.871250 *  0.121250 *  0.641350 *   0.15695    1.000000    
     79 H     c    0.871250 *  0.621250 *  0.141350 *   0.15695    1.000000    
     80 H     c    0.871250 *  0.621250 *  0.641350 *   0.15695    1.000000    
     81 H     c    0.378750 *  0.371250 *  0.358650 *   0.15695    1.000000    
     82 H     c    0.378750 *  0.371250 *  0.858650 *   0.15695    1.000000    
     83 H     c    0.378750 *  0.871250 *  0.358650 *   0.15695    1.000000    
     84 H     c    0.378750 *  0.871250 *  0.858650 *   0.15695    1.000000    
     85 H     c    0.878750 *  0.371250 *  0.358650 *   0.15695    1.000000    
     86 H     c    0.878750 *  0.371250 *  0.858650 *   0.15695    1.000000    
     87 H     c    0.878750 *  0.871250 *  0.358650 *   0.15695    1.000000    
     88 H     c    0.878750 *  0.871250 *  0.858650 *   0.15695    1.000000    
     89 H     c    0.121250 *  0.128750 *  0.358650 *   0.15695    1.000000    
     90 H     c    0.121250 *  0.128750 *  0.858650 *   0.15695    1.000000    
     91 H     c    0.121250 *  0.628750 *  0.358650 *   0.15695    1.000000    
     92 H     c    0.121250 *  0.628750 *  0.858650 *   0.15695    1.000000    
     93 H     c    0.621250 *  0.128750 *  0.358650 *   0.15695    1.000000    
     94 H     c    0.621250 *  0.128750 *  0.858650 *   0.15695    1.000000    
     95 H     c    0.621250 *  0.628750 *  0.358650 *   0.15695    1.000000    
     96 H     c    0.621250 *  0.628750 *  0.858650 *   0.15695    1.000000    
     97 H     c    0.072050 *  0.322050 *  0.481000 *   0.15695    1.000000    
     98 H     c    0.072050 *  0.322050 *  0.981000 *   0.15695    1.000000    
     99 H     c    0.072050 *  0.822050 *  0.481000 *   0.15695    1.000000    
    100 H     c    0.072050 *  0.822050 *  0.981000 *   0.15695    1.000000    
    101 H     c    0.572050 *  0.322050 *  0.481000 *   0.15695    1.000000    
    102 H     c    0.572050 *  0.322050 *  0.981000 *   0.15695    1.000000    
    103 H     c    0.572050 *  0.822050 *  0.481000 *   0.15695    1.000000    
    104 H     c    0.572050 *  0.822050 *  0.981000 *   0.15695    1.000000    
    105 H     c    0.427950 *  0.177950 *  0.481000 *   0.15695    1.000000    
    106 H     c    0.427950 *  0.177950 *  0.981000 *   0.15695    1.000000    
    107 H     c    0.427950 *  0.677950 *  0.481000 *   0.15695    1.000000    
    108 H     c    0.427950 *  0.677950 *  0.981000 *   0.15695    1.000000    
    109 H     c    0.927950 *  0.177950 *  0.481000 *   0.15695    1.000000    
    110 H     c    0.927950 *  0.177950 *  0.981000 *   0.15695    1.000000    
    111 H     c    0.927950 *  0.677950 *  0.481000 *   0.15695    1.000000    
    112 H     c    0.927950 *  0.677950 *  0.981000 *   0.15695    1.000000    
    113 H     c    0.322050 *  0.427950 *  0.019000 *   0.15695    1.000000    
    114 H     c    0.322050 *  0.427950 *  0.519000 *   0.15695    1.000000    
    115 H     c    0.322050 *  0.927950 *  0.019000 *   0.15695    1.000000    
    116 H     c    0.322050 *  0.927950 *  0.519000 *   0.15695    1.000000    
    117 H     c    0.822050 *  0.427950 *  0.019000 *   0.15695    1.000000    
    118 H     c    0.822050 *  0.427950 *  0.519000 *   0.15695    1.000000    
    119 H     c    0.822050 *  0.927950 *  0.019000 *   0.15695    1.000000    
    120 H     c    0.822050 *  0.927950 *  0.519000 *   0.15695    1.000000    
    121 H     c    0.177950 *  0.072050 *  0.019000 *   0.15695    1.000000    
    122 H     c    0.177950 *  0.072050 *  0.519000 *   0.15695    1.000000    
    123 H     c    0.177950 *  0.572050 *  0.019000 *   0.15695    1.000000    
    124 H     c    0.177950 *  0.572050 *  0.519000 *   0.15695    1.000000    
    125 H     c    0.677950 *  0.072050 *  0.019000 *   0.15695    1.000000    
    126 H     c    0.677950 *  0.072050 *  0.519000 *   0.15695    1.000000    
    127 H     c    0.677950 *  0.572050 *  0.019000 *   0.15695    1.000000    
    128 H     c    0.677950 *  0.572050 *  0.519000 *   0.15695    1.000000    
--------------------------------------------------------------------------------



  Molecule list generated from bond lengths :

  Total number of molecules =    16

--------------------------------------------------------------------------------
Molecule No./:  Atoms
Periodicity  :  
--------------------------------------------------------------------------------
     1  0    : C    c     1 O    c    17 N    c    33 N    c    45 H    c    65
             : H    c    77 H    c    98 H    c   110
     2  0    : C    c     2 O    c    18 N    c    34 N    c    46 H    c    66
             : H    c    78 H    c    97 H    c   109
     3  0    : C    c     3 O    c    19 N    c    35 N    c    47 H    c    67
             : H    c    79 H    c   100 H    c   112
     4  0    : C    c     4 O    c    20 N    c    36 N    c    48 H    c    68
             : H    c    80 H    c    99 H    c   111
     5  0    : C    c     5 O    c    21 N    c    37 N    c    41 H    c    69
             : H    c    73 H    c   102 H    c   106
     6  0    : C    c     6 O    c    22 N    c    38 N    c    42 H    c    70
             : H    c    74 H    c   101 H    c   105
     7  0    : C    c     7 O    c    23 N    c    39 N    c    43 H    c    71
             : H    c    75 H    c   104 H    c   108
     8  0    : C    c     8 O    c    24 N    c    40 N    c    44 H    c    72
             : H    c    76 H    c   103 H    c   107
     9  0    : C    c     9 O    c    25 N    c    51 N    c    57 H    c    83
             : H    c    89 H    c   116 H    c   122
    10  0    : C    c    10 O    c    26 N    c    52 N    c    58 H    c    84
             : H    c    90 H    c   115 H    c   121
    11  0    : C    c    11 O    c    27 N    c    49 N    c    59 H    c    81
             : H    c    91 H    c   114 H    c   124
    12  0    : C    c    12 O    c    28 N    c    50 N    c    60 H    c    82
             : H    c    92 H    c   113 H    c   123
    13  0    : C    c    13 O    c    29 N    c    55 N    c    61 H    c    87
             : H    c    93 H    c   120 H    c   126
    14  0    : C    c    14 O    c    30 N    c    56 N    c    62 H    c    88
             : H    c    94 H    c   119 H    c   125
    15  0    : C    c    15 O    c    31 N    c    53 N    c    63 H    c    85
             : H    c    95 H    c   118 H    c   128
    16  0    : C    c    16 O    c    32 N    c    54 N    c    64 H    c    86
             : H    c    96 H    c   117 H    c   127
--------------------------------------------------------------------------------

  Brillouin zone sampling points :

--------------------------------------------------------------------------------
  Point number          x          y          z            Weight
--------------------------------------------------------------------------------
        1           0.125000   0.125000   0.125000     0.03125000
        2           0.125000   0.125000   0.375000     0.03125000
        3           0.125000   0.125000   0.625000     0.03125000
        4           0.125000   0.125000   0.875000     0.03125000
        5           0.125000   0.375000   0.125000     0.03125000
        6           0.125000   0.375000   0.375000     0.03125000
        7           0.125000   0.375000   0.625000     0.03125000
        8           0.125000   0.375000   0.875000     0.03125000
        9           0.125000   0.625000   0.125000     0.03125000
       10           0.125000   0.625000   0.375000     0.03125000
       11           0.125000   0.625000   0.625000     0.03125000
       12           0.125000   0.625000   0.875000     0.03125000
       13           0.125000   0.875000   0.125000     0.03125000
       14           0.125000   0.875000   0.375000     0.03125000
       15           0.125000   0.875000   0.625000     0.03125000
       16           0.125000   0.875000   0.875000     0.03125000
       17           0.375000   0.125000   0.125000     0.03125000
       18           0.375000   0.125000   0.375000     0.03125000
       19           0.375000   0.125000   0.625000     0.03125000
       20           0.375000   0.125000   0.875000     0.03125000
       21           0.375000   0.375000   0.125000     0.03125000
       22           0.375000   0.375000   0.375000     0.03125000
       23           0.375000   0.375000   0.625000     0.03125000
       24           0.375000   0.375000   0.875000     0.03125000
       25           0.375000   0.625000   0.125000     0.03125000
       26           0.375000   0.625000   0.375000     0.03125000
       27           0.375000   0.625000   0.625000     0.03125000
       28           0.375000   0.625000   0.875000     0.03125000
       29           0.375000   0.875000   0.125000     0.03125000
       30           0.375000   0.875000   0.375000     0.03125000
       31           0.375000   0.875000   0.625000     0.03125000
       32           0.375000   0.875000   0.875000     0.03125000
--------------------------------------------------------------------------------


********************************************************************************
*  General input information                                                   *
********************************************************************************

  Species output for all configurations : 

--------------------------------------------------------------------------------
  Species    Type    Atomic    Atomic    Charge       Radii (Angs)     Library
                     Number     Mass       (e)     Cova   Ionic  VDW   Symbol
--------------------------------------------------------------------------------
    C        Core        6      12.01   1.203537   0.770  0.000  1.530          
    O        Core        8      16.00  -0.909398   0.730  0.000  1.360          
    N        Core        7      14.01  -0.460959   0.750  0.000  1.480          
    H        Core        1       1.01   0.156945   0.370  0.000  1.080          
--------------------------------------------------------------------------------


  Lattice summation method               =    Ewald          (3-D)
                                         =    Parry          (2-D)
                                         =    Saunders et al (1-D)
  Accuracy factor for lattice sums       =   12.000


  Analytic derivatives to be used

  Time limit = Infinity

  Maximum range for interatomic potentials =    100000.000000 Angstroms

  Intramolecular potentials :

--------------------------------------------------------------------------------
Atom  Types   Potential      Parameter       Value         Units   Cutoffs(Ang)
  1     2                                                            Min /  Max 
--------------------------------------------------------------------------------
C    c O    c Morse         Morse  De        6.2880000    eV        0.000  1.600
                            Morse  a0        2.0600000    Ang^-1    
                            Morse  r0        1.2300000    Ang       
--------------------------------------------------------------------------------
C    c N    c Morse         Morse  De        4.2060000    eV        0.000  1.600
                            Morse  a0        2.0000000    Ang^-1    
                            Morse  r0        1.3200000    Ang       
--------------------------------------------------------------------------------
H    c N    c Morse         Morse  De        3.8160000    eV        0.000  1.600
                            Morse  a0        2.2800000    Ang^-1    
                            Morse  r0        1.0260000    Ang       
--------------------------------------------------------------------------------

  Intermolecular potentials :

--------------------------------------------------------------------------------
Atom  Types   Potential      Parameter       Value         Units   Cutoffs(Ang)
  1     2                                                            Min /  Max 
--------------------------------------------------------------------------------
C    c O    c Lennard       Lennard-Jones A  39031.570    eV*Ang^m  0.000 40.000
                            Lennard-Jones B  35.266000    eV*Ang^n  
                            Exponent m        12          None
                            Exponent n         6          None
--------------------------------------------------------------------------------
C    c N    c Lennard       Lennard-Jones A  112494.67    eV*Ang^m  0.000 40.000
                            Lennard-Jones B  55.387000    eV*Ang^n  
                            Exponent m        12          None
                            Exponent n         6          None
--------------------------------------------------------------------------------
O    c O    c Lennard       Lennard-Jones A  11833.864    eV*Ang^m  0.000 40.000
                            Lennard-Jones B  21.633000    eV*Ang^n  
                            Exponent m        12          None
                            Exponent n         6          None
--------------------------------------------------------------------------------
N    c O    c Lennard       Lennard-Jones A  34106.919    eV*Ang^m  0.000 40.000
                            Lennard-Jones B  33.977000    eV*Ang^n  
                            Exponent m        12          None
                            Exponent n         6          None
--------------------------------------------------------------------------------
N    c N    c Lennard       Lennard-Jones A  98301.108    eV*Ang^m  0.000 40.000
                            Lennard-Jones B  53.362000    eV*Ang^n  
                            Exponent m        12          None
                            Exponent n         6          None
--------------------------------------------------------------------------------
C    c C    c Lennard       Lennard-Jones A  128737.61    eV*Ang^m  0.000 40.000
                            Lennard-Jones B  57.488000    eV*Ang^n  
                            Exponent m        12          None
                            Exponent n         6          None
--------------------------------------------------------------------------------

  General Three-body potentials :

--------------------------------------------------------------------------------
  Atoms       Potential      Parameter       Value         Units   Cutoffs(Ang)
  1 / 2 / 3                                                          Min /  Max 
--------------------------------------------------------------------------------
C     core    Harmonic      Three-body cnst  5.8970000    eV*rad^-2 0.000  1.600
N     core                  Three-body angl  121.00000    degrees   0.000  1.600
O     core                  Three-body k4    0.0000000    eV*rad^-4 0.000  3.000
                            Three-body k3    0.0000000    eV*rad^-3 
--------------------------------------------------------------------------------
N     core    Harmonic      Three-body cnst  3.2520000    eV*rad^-2 0.000  1.400
H     core                  Three-body angl  120.00000    degrees   0.000  1.600
C     core                  Three-body k4    0.0000000    eV*rad^-4 0.000  2.600
                            Three-body k3    0.0000000    eV*rad^-3 
--------------------------------------------------------------------------------
N     core    Harmonic      Three-body cnst  2.8620000    eV*rad^-2 0.000  1.400
H     core                  Three-body angl  120.00000    degrees   0.000  1.400
H     core                  Three-body k4    0.0000000    eV*rad^-4 0.000  2.300
                            Three-body k3    0.0000000    eV*rad^-3 
--------------------------------------------------------------------------------
C     core    Harmonic      Three-body cnst  8.8460000    eV*rad^-2 0.000  1.600
N     core                  Three-body angl  118.00000    degrees   0.000  1.600
N     core                  Three-body k4    0.0000000    eV*rad^-4 0.000  2.800
                            Three-body k3    0.0000000    eV*rad^-3 
--------------------------------------------------------------------------------

  General Four-body potentials :

--------------------------------------------------------------------------------
  Atoms       Potential      Parameter       Value         Units   Cutoffs(Ang)
  1 - 4                                                             Min /  Max 
--------------------------------------------------------------------------------
O     core    Standard      Torsional const 0.26020000    eV        0.000  1.400
C     core Phase = -  2                                             0.000  1.400
N     core                                                          0.000  1.300
H     core                                                          0.000  0.000
--------------------------------------------------------------------------------
N     core    Standard      Torsional const 0.21700000E-02eV        0.000  1.600
C     core Phase = -  2                                             0.000  1.600
N     core                                                          0.000  1.300
H     core                                                          0.000  0.000
--------------------------------------------------------------------------------
O     core    Standard      Torsional const 0.43400000    eV        0.000  1.600
C     core Phase = -  2                                             0.000  1.600
N     core                                                          0.000  3.000
N     core                                                          0.000  0.000
--------------------------------------------------------------------------------
C     core    Out of plane  Out of plane K2  5.0000000    eV*Ang^-2 0.000  1.400
O     core                  Out of plane K4  0.0000000    eV*Ang^-4 0.000  1.600
N     core                                                          0.000  1.600
N     core                                                          0.000  0.000
--------------------------------------------------------------------------------

  Intramolecular Four-body potentials :

--------------------------------------------------------------------------------
  Atoms       Potential      Parameter       Value         Units   Cutoffs(Ang)
  1 - 4                                                             Min /  Max 
--------------------------------------------------------------------------------
O     core    Standard      Torsional const 0.12385000    eV         Improper
C     core Phase = +  2                                                       
N     core                                                              
N     core
--------------------------------------------------------------------------------

********************************************************************************
*  Output for configuration   1                                                *
********************************************************************************


  Components of energy : 

--------------------------------------------------------------------------------
  Interatomic potentials     =        -482.33756289 eV    
  Three-body potentials      =           0.03285633 eV    
  Four-body potentials       =           0.00000000 eV    
  Improper torsions          =           0.00000000 eV    
  Out of plane potentials    =           0.00000000 eV    
  Monopole - monopole (real) =          80.46242208 eV    
  Monopole - monopole (recip)=         -91.94569821 eV    
  Monopole - monopole (total)=         -11.48327613 eV    
--------------------------------------------------------------------------------
  Total lattice energy       =        -493.78798268 eV    
--------------------------------------------------------------------------------
  Total lattice energy       =          -47642.9921 kJ/(mole unit cells)
--------------------------------------------------------------------------------

  Born effective charge tensors : 

-------------------------------------------------------------------------------
  Atom             x           y             z
-------------------------------------------------------------------------------
    1 C     x       1.2035      0.0000      0.0000
            y       0.0000      1.2035      0.0000
            z       0.0000      0.0000      1.2035
-------------------------------------------------------------------------------
    2 C     x       1.2035      0.0000      0.0000
            y       0.0000      1.2035      0.0000
            z       0.0000      0.0000      1.2035
-------------------------------------------------------------------------------
    3 C     x       1.2035      0.0000      0.0000
            y       0.0000      1.2035      0.0000
            z       0.0000      0.0000      1.2035
-------------------------------------------------------------------------------
    4 C     x       1.2035      0.0000      0.0000
            y       0.0000      1.2035      0.0000
            z       0.0000      0.0000      1.2035
-------------------------------------------------------------------------------
    5 C     x       1.2035      0.0000      0.0000
            y       0.0000      1.2035      0.0000
            z       0.0000      0.0000      1.2035
-------------------------------------------------------------------------------
    6 C     x       1.2035      0.0000      0.0000
            y       0.0000      1.2035      0.0000
            z       0.0000      0.0000      1.2035
-------------------------------------------------------------------------------
    7 C     x       1.2035      0.0000      0.0000
            y       0.0000      1.2035      0.0000
            z       0.0000      0.0000      1.2035
-------------------------------------------------------------------------------
    8 C     x       1.2035      0.0000      0.0000
            y       0.0000      1.2035      0.0000
            z       0.0000      0.0000      1.2035
-------------------------------------------------------------------------------
    9 C     x       1.2035      0.0000      0.0000
            y       0.0000      1.2035      0.0000
            z       0.0000      0.0000      1.2035
-------------------------------------------------------------------------------
   10 C     x       1.2035      0.0000      0.0000
            y       0.0000      1.2035      0.0000
            z       0.0000      0.0000      1.2035
-------------------------------------------------------------------------------
   11 C     x       1.2035      0.0000      0.0000
            y       0.0000      1.2035      0.0000
            z       0.0000      0.0000      1.2035
-------------------------------------------------------------------------------
   12 C     x       1.2035      0.0000      0.0000
            y       0.0000      1.2035      0.0000
            z       0.0000      0.0000      1.2035
-------------------------------------------------------------------------------
   13 C     x       1.2035      0.0000      0.0000
            y       0.0000      1.2035      0.0000
            z       0.0000      0.0000      1.2035
-------------------------------------------------------------------------------
   14 C     x       1.2035      0.0000      0.0000
            y       0.0000      1.2035      0.0000
            z       0.0000      0.0000      1.2035
-------------------------------------------------------------------------------
   15 C     x       1.2035      0.0000      0.0000
            y       0.0000      1.2035      0.0000
            z       0.0000      0.0000      1.2035
-------------------------------------------------------------------------------
   16 C     x       1.2035      0.0000      0.0000
            y       0.0000      1.2035      0.0000
            z       0.0000      0.0000      1.2035
-------------------------------------------------------------------------------
   17 O     x      -0.9094      0.0000      0.0000
            y       0.0000     -0.9094      0.0000
            z       0.0000      0.0000     -0.9094
-------------------------------------------------------------------------------
   18 O     x      -0.9094      0.0000      0.0000
            y       0.0000     -0.9094      0.0000
            z       0.0000      0.0000     -0.9094
-------------------------------------------------------------------------------
   19 O     x      -0.9094      0.0000      0.0000
            y       0.0000     -0.9094      0.0000
            z       0.0000      0.0000     -0.9094
-------------------------------------------------------------------------------
   20 O     x      -0.9094      0.0000      0.0000
            y       0.0000     -0.9094      0.0000
            z       0.0000      0.0000     -0.9094
-------------------------------------------------------------------------------
   21 O     x      -0.9094      0.0000      0.0000
            y       0.0000     -0.9094      0.0000
            z       0.0000      0.0000     -0.9094
-------------------------------------------------------------------------------
   22 O     x      -0.9094      0.0000      0.0000
            y       0.0000     -0.9094      0.0000
            z       0.0000      0.0000     -0.9094
-------------------------------------------------------------------------------
   23 O     x      -0.9094      0.0000      0.0000
            y       0.0000     -0.9094      0.0000
            z       0.0000      0.0000     -0.9094
-------------------------------------------------------------------------------
   24 O     x      -0.9094      0.0000      0.0000
            y       0.0000     -0.9094      0.0000
            z       0.0000      0.0000     -0.9094
-------------------------------------------------------------------------------
   25 O     x      -0.9094      0.0000      0.0000
            y       0.0000     -0.9094      0.0000
            z       0.0000      0.0000     -0.9094
-------------------------------------------------------------------------------
   26 O     x      -0.9094      0.0000      0.0000
            y       0.0000     -0.9094      0.0000
            z       0.0000      0.0000     -0.9094
-------------------------------------------------------------------------------
   27 O     x      -0.9094      0.0000      0.0000
            y       0.0000     -0.9094      0.0000
            z       0.0000      0.0000     -0.9094
-------------------------------------------------------------------------------
   28 O     x      -0.9094      0.0000      0.0000
            y       0.0000     -0.9094      0.0000
            z       0.0000      0.0000     -0.9094
-------------------------------------------------------------------------------
   29 O     x      -0.9094      0.0000      0.0000
            y       0.0000     -0.9094      0.0000
            z       0.0000      0.0000     -0.9094
-------------------------------------------------------------------------------
   30 O     x      -0.9094      0.0000      0.0000
            y       0.0000     -0.9094      0.0000
            z       0.0000      0.0000     -0.9094
-------------------------------------------------------------------------------
   31 O     x      -0.9094      0.0000      0.0000
            y       0.0000     -0.9094      0.0000
            z       0.0000      0.0000     -0.9094
-------------------------------------------------------------------------------
   32 O     x      -0.9094      0.0000      0.0000
            y       0.0000     -0.9094      0.0000
            z       0.0000      0.0000     -0.9094
-------------------------------------------------------------------------------
   33 N     x      -0.4610      0.0000      0.0000
            y       0.0000     -0.4610      0.0000
            z       0.0000      0.0000     -0.4610
-------------------------------------------------------------------------------
   34 N     x      -0.4610      0.0000      0.0000
            y       0.0000     -0.4610      0.0000
            z       0.0000      0.0000     -0.4610
-------------------------------------------------------------------------------
   35 N     x      -0.4610      0.0000      0.0000
            y       0.0000     -0.4610      0.0000
            z       0.0000      0.0000     -0.4610
-------------------------------------------------------------------------------
   36 N     x      -0.4610      0.0000      0.0000
            y       0.0000     -0.4610      0.0000
            z       0.0000      0.0000     -0.4610
-------------------------------------------------------------------------------
   37 N     x      -0.4610      0.0000      0.0000
            y       0.0000     -0.4610      0.0000
            z       0.0000      0.0000     -0.4610
-------------------------------------------------------------------------------
   38 N     x      -0.4610      0.0000      0.0000
            y       0.0000     -0.4610      0.0000
            z       0.0000      0.0000     -0.4610
-------------------------------------------------------------------------------
   39 N     x      -0.4610      0.0000      0.0000
            y       0.0000     -0.4610      0.0000
            z       0.0000      0.0000     -0.4610
-------------------------------------------------------------------------------
   40 N     x      -0.4610      0.0000      0.0000
            y       0.0000     -0.4610      0.0000
            z       0.0000      0.0000     -0.4610
-------------------------------------------------------------------------------
   41 N     x      -0.4610      0.0000      0.0000
            y       0.0000     -0.4610      0.0000
            z       0.0000      0.0000     -0.4610
-------------------------------------------------------------------------------
   42 N     x      -0.4610      0.0000      0.0000
            y       0.0000     -0.4610      0.0000
            z       0.0000      0.0000     -0.4610
-------------------------------------------------------------------------------
   43 N     x      -0.4610      0.0000      0.0000
            y       0.0000     -0.4610      0.0000
            z       0.0000      0.0000     -0.4610
-------------------------------------------------------------------------------
   44 N     x      -0.4610      0.0000      0.0000
            y       0.0000     -0.4610      0.0000
            z       0.0000      0.0000     -0.4610
-------------------------------------------------------------------------------
   45 N     x      -0.4610      0.0000      0.0000
            y       0.0000     -0.4610      0.0000
            z       0.0000      0.0000     -0.4610
-------------------------------------------------------------------------------
   46 N     x      -0.4610      0.0000      0.0000
            y       0.0000     -0.4610      0.0000
            z       0.0000      0.0000     -0.4610
-------------------------------------------------------------------------------
   47 N     x      -0.4610      0.0000      0.0000
            y       0.0000     -0.4610      0.0000
            z       0.0000      0.0000     -0.4610
-------------------------------------------------------------------------------
   48 N     x      -0.4610      0.0000      0.0000
            y       0.0000     -0.4610      0.0000
            z       0.0000      0.0000     -0.4610
-------------------------------------------------------------------------------
   49 N     x      -0.4610      0.0000      0.0000
            y       0.0000     -0.4610      0.0000
            z       0.0000      0.0000     -0.4610
-------------------------------------------------------------------------------
   50 N     x      -0.4610      0.0000      0.0000
            y       0.0000     -0.4610      0.0000
            z       0.0000      0.0000     -0.4610
-------------------------------------------------------------------------------
   51 N     x      -0.4610      0.0000      0.0000
            y       0.0000     -0.4610      0.0000
            z       0.0000      0.0000     -0.4610
-------------------------------------------------------------------------------
   52 N     x      -0.4610      0.0000      0.0000
            y       0.0000     -0.4610      0.0000
            z       0.0000      0.0000     -0.4610
-------------------------------------------------------------------------------
   53 N     x      -0.4610      0.0000      0.0000
            y       0.0000     -0.4610      0.0000
            z       0.0000      0.0000     -0.4610
-------------------------------------------------------------------------------
   54 N     x      -0.4610      0.0000      0.0000
            y       0.0000     -0.4610      0.0000
            z       0.0000      0.0000     -0.4610
-------------------------------------------------------------------------------
   55 N     x      -0.4610      0.0000      0.0000
            y       0.0000     -0.4610      0.0000
            z       0.0000      0.0000     -0.4610
-------------------------------------------------------------------------------
   56 N     x      -0.4610      0.0000      0.0000
            y       0.0000     -0.4610      0.0000
            z       0.0000      0.0000     -0.4610
-------------------------------------------------------------------------------
   57 N     x      -0.4610      0.0000      0.0000
            y       0.0000     -0.4610      0.0000
            z       0.0000      0.0000     -0.4610
-------------------------------------------------------------------------------
   58 N     x      -0.4610      0.0000      0.0000
            y       0.0000     -0.4610      0.0000
            z       0.0000      0.0000     -0.4610
-------------------------------------------------------------------------------
   59 N     x      -0.4610      0.0000      0.0000
            y       0.0000     -0.4610      0.0000
            z       0.0000      0.0000     -0.4610
-------------------------------------------------------------------------------
   60 N     x      -0.4610      0.0000      0.0000
            y       0.0000     -0.4610      0.0000
            z       0.0000      0.0000     -0.4610
-------------------------------------------------------------------------------
   61 N     x      -0.4610      0.0000      0.0000
            y       0.0000     -0.4610      0.0000
            z       0.0000      0.0000     -0.4610
-------------------------------------------------------------------------------
   62 N     x      -0.4610      0.0000      0.0000
            y       0.0000     -0.4610      0.0000
            z       0.0000      0.0000     -0.4610
-------------------------------------------------------------------------------
   63 N     x      -0.4610      0.0000      0.0000
            y       0.0000     -0.4610      0.0000
            z       0.0000      0.0000     -0.4610
-------------------------------------------------------------------------------
   64 N     x      -0.4610      0.0000      0.0000
            y       0.0000     -0.4610      0.0000
            z       0.0000      0.0000     -0.4610
-------------------------------------------------------------------------------
   65 H     x       0.1569      0.0000      0.0000
            y       0.0000      0.1569      0.0000
            z       0.0000      0.0000      0.1569
-------------------------------------------------------------------------------
   66 H     x       0.1569      0.0000      0.0000
            y       0.0000      0.1569      0.0000
            z       0.0000      0.0000      0.1569
-------------------------------------------------------------------------------
   67 H     x       0.1569      0.0000      0.0000
            y       0.0000      0.1569      0.0000
            z       0.0000      0.0000      0.1569
-------------------------------------------------------------------------------
   68 H     x       0.1569      0.0000      0.0000
            y       0.0000      0.1569      0.0000
            z       0.0000      0.0000      0.1569
-------------------------------------------------------------------------------
   69 H     x       0.1569      0.0000      0.0000
            y       0.0000      0.1569      0.0000
            z       0.0000      0.0000      0.1569
-------------------------------------------------------------------------------
   70 H     x       0.1569      0.0000      0.0000
            y       0.0000      0.1569      0.0000
            z       0.0000      0.0000      0.1569
-------------------------------------------------------------------------------
   71 H     x       0.1569      0.0000      0.0000
            y       0.0000      0.1569      0.0000
            z       0.0000      0.0000      0.1569
-------------------------------------------------------------------------------
   72 H     x       0.1569      0.0000      0.0000
            y       0.0000      0.1569      0.0000
            z       0.0000      0.0000      0.1569
-------------------------------------------------------------------------------
   73 H     x       0.1569      0.0000      0.0000
            y       0.0000      0.1569      0.0000
            z       0.0000      0.0000      0.1569
-------------------------------------------------------------------------------
   74 H     x       0.1569      0.0000      0.0000
            y       0.0000      0.1569      0.0000
            z       0.0000      0.0000      0.1569
-------------------------------------------------------------------------------
   75 H     x       0.1569      0.0000      0.0000
            y       0.0000      0.1569      0.0000
            z       0.0000      0.0000      0.1569
-------------------------------------------------------------------------------
   76 H     x       0.1569      0.0000      0.0000
            y       0.0000      0.1569      0.0000
            z       0.0000      0.0000      0.1569
-------------------------------------------------------------------------------
   77 H     x       0.1569      0.0000      0.0000
            y       0.0000      0.1569      0.0000
            z       0.0000      0.0000      0.1569
-------------------------------------------------------------------------------
   78 H     x       0.1569      0.0000      0.0000
            y       0.0000      0.1569      0.0000
            z       0.0000      0.0000      0.1569
-------------------------------------------------------------------------------
   79 H     x       0.1569      0.0000      0.0000
            y       0.0000      0.1569      0.0000
            z       0.0000      0.0000      0.1569
-------------------------------------------------------------------------------
   80 H     x       0.1569      0.0000      0.0000
            y       0.0000      0.1569      0.0000
            z       0.0000      0.0000      0.1569
-------------------------------------------------------------------------------
   81 H     x       0.1569      0.0000      0.0000
            y       0.0000      0.1569      0.0000
            z       0.0000      0.0000      0.1569
-------------------------------------------------------------------------------
   82 H     x       0.1569      0.0000      0.0000
            y       0.0000      0.1569      0.0000
            z       0.0000      0.0000      0.1569
-------------------------------------------------------------------------------
   83 H     x       0.1569      0.0000      0.0000
            y       0.0000      0.1569      0.0000
            z       0.0000      0.0000      0.1569
-------------------------------------------------------------------------------
   84 H     x       0.1569      0.0000      0.0000
            y       0.0000      0.1569      0.0000
            z       0.0000      0.0000      0.1569
-------------------------------------------------------------------------------
   85 H     x       0.1569      0.0000      0.0000
            y       0.0000      0.1569      0.0000
            z       0.0000      0.0000      0.1569
-------------------------------------------------------------------------------
   86 H     x       0.1569      0.0000      0.0000
            y       0.0000      0.1569      0.0000
            z       0.0000      0.0000      0.1569
-------------------------------------------------------------------------------
   87 H     x       0.1569      0.0000      0.0000
            y       0.0000      0.1569      0.0000
            z       0.0000      0.0000      0.1569
-------------------------------------------------------------------------------
   88 H     x       0.1569      0.0000      0.0000
            y       0.0000      0.1569      0.0000
            z       0.0000      0.0000      0.1569
-------------------------------------------------------------------------------
   89 H     x       0.1569      0.0000      0.0000
            y       0.0000      0.1569      0.0000
            z       0.0000      0.0000      0.1569
-------------------------------------------------------------------------------
   90 H     x       0.1569      0.0000      0.0000
            y       0.0000      0.1569      0.0000
            z       0.0000      0.0000      0.1569
-------------------------------------------------------------------------------
   91 H     x       0.1569      0.0000      0.0000
            y       0.0000      0.1569      0.0000
            z       0.0000      0.0000      0.1569
-------------------------------------------------------------------------------
   92 H     x       0.1569      0.0000      0.0000
            y       0.0000      0.1569      0.0000
            z       0.0000      0.0000      0.1569
-------------------------------------------------------------------------------
   93 H     x       0.1569      0.0000      0.0000
            y       0.0000      0.1569      0.0000
            z       0.0000      0.0000      0.1569
-------------------------------------------------------------------------------
   94 H     x       0.1569      0.0000      0.0000
            y       0.0000      0.1569      0.0000
            z       0.0000      0.0000      0.1569
-------------------------------------------------------------------------------
   95 H     x       0.1569      0.0000      0.0000
            y       0.0000      0.1569      0.0000
            z       0.0000      0.0000      0.1569
-------------------------------------------------------------------------------
   96 H     x       0.1569      0.0000      0.0000
            y       0.0000      0.1569      0.0000
            z       0.0000      0.0000      0.1569
-------------------------------------------------------------------------------
   97 H     x       0.1569      0.0000      0.0000
            y       0.0000      0.1569      0.0000
            z       0.0000      0.0000      0.1569
-------------------------------------------------------------------------------
   98 H     x       0.1569      0.0000      0.0000
            y       0.0000      0.1569      0.0000
            z       0.0000      0.0000      0.1569
-------------------------------------------------------------------------------
   99 H     x       0.1569      0.0000      0.0000
            y       0.0000      0.1569      0.0000
            z       0.0000      0.0000      0.1569
-------------------------------------------------------------------------------
  100 H     x       0.1569      0.0000      0.0000
            y       0.0000      0.1569      0.0000
            z       0.0000      0.0000      0.1569
-------------------------------------------------------------------------------
  101 H     x       0.1569      0.0000      0.0000
            y       0.0000      0.1569      0.0000
            z       0.0000      0.0000      0.1569
-------------------------------------------------------------------------------
  102 H     x       0.1569      0.0000      0.0000
            y       0.0000      0.1569      0.0000
            z       0.0000      0.0000      0.1569
-------------------------------------------------------------------------------
  103 H     x       0.1569      0.0000      0.0000
            y       0.0000      0.1569      0.0000
            z       0.0000      0.0000      0.1569
-------------------------------------------------------------------------------
  104 H     x       0.1569      0.0000      0.0000
            y       0.0000      0.1569      0.0000
            z       0.0000      0.0000      0.1569
-------------------------------------------------------------------------------
  105 H     x       0.1569      0.0000      0.0000
            y       0.0000      0.1569      0.0000
            z       0.0000      0.0000      0.1569
-------------------------------------------------------------------------------
  106 H     x       0.1569      0.0000      0.0000
            y       0.0000      0.1569      0.0000
            z       0.0000      0.0000      0.1569
-------------------------------------------------------------------------------
  107 H     x       0.1569      0.0000      0.0000
            y       0.0000      0.1569      0.0000
            z       0.0000      0.0000      0.1569
-------------------------------------------------------------------------------
  108 H     x       0.1569      0.0000      0.0000
            y       0.0000      0.1569      0.0000
            z       0.0000      0.0000      0.1569
-------------------------------------------------------------------------------
  109 H     x       0.1569      0.0000      0.0000
            y       0.0000      0.1569      0.0000
            z       0.0000      0.0000      0.1569
-------------------------------------------------------------------------------
  110 H     x       0.1569      0.0000      0.0000
            y       0.0000      0.1569      0.0000
            z       0.0000      0.0000      0.1569
-------------------------------------------------------------------------------
  111 H     x       0.1569      0.0000      0.0000
            y       0.0000      0.1569      0.0000
            z       0.0000      0.0000      0.1569
-------------------------------------------------------------------------------
  112 H     x       0.1569      0.0000      0.0000
            y       0.0000      0.1569      0.0000
            z       0.0000      0.0000      0.1569
-------------------------------------------------------------------------------
  113 H     x       0.1569      0.0000      0.0000
            y       0.0000      0.1569      0.0000
            z       0.0000      0.0000      0.1569
-------------------------------------------------------------------------------
  114 H     x       0.1569      0.0000      0.0000
            y       0.0000      0.1569      0.0000
            z       0.0000      0.0000      0.1569
-------------------------------------------------------------------------------
  115 H     x       0.1569      0.0000      0.0000
            y       0.0000      0.1569      0.0000
            z       0.0000      0.0000      0.1569
-------------------------------------------------------------------------------
  116 H     x       0.1569      0.0000      0.0000
            y       0.0000      0.1569      0.0000
            z       0.0000      0.0000      0.1569
-------------------------------------------------------------------------------
  117 H     x       0.1569      0.0000      0.0000
            y       0.0000      0.1569      0.0000
            z       0.0000      0.0000      0.1569
-------------------------------------------------------------------------------
  118 H     x       0.1569      0.0000      0.0000
            y       0.0000      0.1569      0.0000
            z       0.0000      0.0000      0.1569
-------------------------------------------------------------------------------
  119 H     x       0.1569      0.0000      0.0000
            y       0.0000      0.1569      0.0000
            z       0.0000      0.0000      0.1569
-------------------------------------------------------------------------------
  120 H     x       0.1569      0.0000      0.0000
            y       0.0000      0.1569      0.0000
            z       0.0000      0.0000      0.1569
-------------------------------------------------------------------------------
  121 H     x       0.1569      0.0000      0.0000
            y       0.0000      0.1569      0.0000
            z       0.0000      0.0000      0.1569
-------------------------------------------------------------------------------
  122 H     x       0.1569      0.0000      0.0000
            y       0.0000      0.1569      0.0000
            z       0.0000      0.0000      0.1569
-------------------------------------------------------------------------------
  123 H     x       0.1569      0.0000      0.0000
            y       0.0000      0.1569      0.0000
            z       0.0000      0.0000      0.1569
-------------------------------------------------------------------------------
  124 H     x       0.1569      0.0000      0.0000
            y       0.0000      0.1569      0.0000
            z       0.0000      0.0000      0.1569
-------------------------------------------------------------------------------
  125 H     x       0.1569      0.0000      0.0000
            y       0.0000      0.1569      0.0000
            z       0.0000      0.0000      0.1569
-------------------------------------------------------------------------------
  126 H     x       0.1569      0.0000      0.0000
            y       0.0000      0.1569      0.0000
            z       0.0000      0.0000      0.1569
-------------------------------------------------------------------------------
  127 H     x       0.1569      0.0000      0.0000
            y       0.0000      0.1569      0.0000
            z       0.0000      0.0000      0.1569
-------------------------------------------------------------------------------
  128 H     x       0.1569      0.0000      0.0000
            y       0.0000      0.1569      0.0000
            z       0.0000      0.0000      0.1569
-------------------------------------------------------------------------------




  Elastic Constant Matrix: (Units=GPa)

-------------------------------------------------------------------------------
  Indices      1         2         3         4         5         6    
-------------------------------------------------------------------------------
       1     15.2269   20.9984   15.4453    0.0000    0.0000   -0.0000
       2     20.9984   15.2269   15.4453    0.0000   -0.0000    0.0000
       3     15.4453   15.4453   84.7673    0.0000   -0.0000   -0.0000
       4     -0.0000   -0.0000    0.0000   -9.9783    0.0000   -0.0000
       5     -0.0000   -0.0000   -0.0000   -0.0000   -9.9783   -0.0000
       6     -0.0000   -0.0000   -0.0000   -0.0000   -0.0000   18.1885
-------------------------------------------------------------------------------


  Elastic Compliance Matrix: (Units=1/GPa)

-------------------------------------------------------------------------------
  Indices      1         2         3         4         5         6    
-------------------------------------------------------------------------------
       1   -0.070290  0.102974 -0.005955  0.000000 -0.000000 -0.000000
       2    0.102974 -0.070290 -0.005955 -0.000000  0.000000  0.000000
       3   -0.005955 -0.005955  0.013967  0.000000 -0.000000  0.000000
       4   -0.000000 -0.000000  0.000000 -0.100217 -0.000000 -0.000000
       5   -0.000000  0.000000 -0.000000  0.000000 -0.100217 -0.000000
       6    0.000000 -0.000000  0.000000 -0.000000 -0.000000  0.054980
-------------------------------------------------------------------------------

  Mechanical properties :

-------------------------------------------------------------------------------
  Convention :                    Reuss         Voigt         Hill
-------------------------------------------------------------------------------
  Bulk  Modulus (GPa)     =      18.01382      24.33324      21.17353
  Shear Modulus (GPa)     =     -11.47603       3.86850      -3.80376
-------------------------------------------------------------------------------
  Velocity S-wave (km/s)  =      -2.88867       1.67715      -1.66306
  Velocity P-wave (km/s)  =       1.40437       4.63072       3.42168
-------------------------------------------------------------------------------
  Compressibility (1/GPa) =    0.05551293
-------------------------------------------------------------------------------
  Stress axis :                     x             y             z
-------------------------------------------------------------------------------
  Youngs Moduli (GPa)     =     -14.22668     -14.22668      71.59646
-------------------------------------------------------------------------------
  Poissons Ratio (x)      =                     1.46497       0.42637
  Poissons Ratio (y)      =       1.46497                     0.42637
  Poissons Ratio (z)      =      -0.08472      -0.08472
-------------------------------------------------------------------------------


  Piezoelectric Strain Matrix: (Units=C/m**2)

-------------------------------------------------------------------------------
  Indices      1         2         3         4         5         6    
-------------------------------------------------------------------------------
       x    -0.00000  -0.00000   0.00000   6.32558  -0.00002   0.00000
       y     0.00000   0.00000  -0.00000  -0.00002   6.32558  -0.00000
       z     0.00000   0.00000   0.00001  -0.00000   0.00000   0.05715
-------------------------------------------------------------------------------


  Piezoelectric Stress Matrix: (Units=10**-11 C/N)

-------------------------------------------------------------------------------
  Indices      1         2         3         4         5         6    
-------------------------------------------------------------------------------
       x    -0.00000  -0.00001   0.00000 -63.39326   0.00022   0.00001
       y     0.00001   0.00000  -0.00000   0.00022 -63.39326  -0.00001
       z    -0.00001  -0.00001   0.00001   0.00000  -0.00000   0.31423
-------------------------------------------------------------------------------


  Static dielectric constant tensor : 

-------------------------------------------------------------------------------
              x         y         z
-------------------------------------------------------------------------------
       x     2.34992  -0.00001  -0.00000
       y    -0.00001   2.34992   0.00000
       z    -0.00000   0.00000   1.07421
--------------------------------------------------------------------------------

  Static refractive indices : 

-------------------------------------------------------------------------------
    1 =    1.03644      2 =    1.53294      3 =    1.53295
-------------------------------------------------------------------------------


  Phonon Calculation : 

  Number of k points for this configuration =       32

--------------------------------------------------------------------------------
  K point      1 =   0.125000  0.125000  0.125000  Weight =    0.031
--------------------------------------------------------------------------------

  Frequencies (cm-1) [NB: Negative implies an imaginary mode]:

  -92.48  -89.75  -85.46  -82.43  -68.62  -68.62  -62.63  -62.63  -30.32
  -18.06  -13.19   12.69   16.97   16.97   20.67   22.56   29.76   33.57
   33.57   38.78   42.42   47.15   51.58   51.58   56.89   56.89   58.94
   66.32   66.32   73.15   73.15   87.17   89.55   90.67   90.67   90.68
   91.58   94.28   94.28   94.62   94.74   98.64   98.64   99.50  102.24
  102.24  103.17  106.45  108.40  108.40  109.79  109.87  109.87  112.26
  112.75  112.75  114.63  115.84  115.84  117.82  119.39  122.49  122.63
  126.34  129.65  134.78  138.76  142.99  147.03  147.03  152.47  152.47
  153.40  153.40  159.40  159.40  166.29  170.30  171.87  173.30  173.30
  175.87  180.52  180.53  190.04  190.64  192.85  193.32  195.28  198.53
  200.55  209.52  209.68  209.68  212.55  212.55  384.94  384.94  385.49
  385.49  387.10  387.10  387.23  387.67  387.67  388.84  389.12  389.45
  389.50  390.13  391.73  392.42  412.90  413.03  418.72  418.97  419.50
  419.90  421.07  421.07  422.16  422.16  423.82  423.82  425.06  425.06
  428.53  428.91  470.05  475.63  477.50  478.61  478.61  480.02  480.02
  480.70  480.70  481.14  481.14  481.24  482.07  482.07  485.36  486.14
  488.01  488.89  489.30  489.30  489.58  490.31  492.33  492.33  496.18
  497.51  497.51  499.32  499.32  499.42  499.63  499.63  500.08  501.10
  501.92  501.92  503.80  505.29  505.29  506.60  506.74  506.74  507.98
  512.14  513.42  514.88  517.04  518.73  528.34  532.77  532.88  534.86
  537.94  540.22  546.39  546.39  548.91  548.91  553.26  553.46  553.46
  559.45  559.45  570.51  745.04  745.12  745.25  745.31  745.31  745.65
  745.65  745.74  746.23  746.23  746.46  746.56  746.76  746.76  747.05
  749.05  912.56  912.58  912.67  912.69  912.74  912.74  912.76  912.76
  913.44  913.51  913.51  913.55  913.55  913.57  913.68  913.69  931.66
  933.21  933.21  933.28  933.48  934.24  934.24  937.16  952.70  957.22
  957.22  957.89  958.35  959.51  959.51  964.26 1249.07 1249.55 1252.36
 1254.55 1254.55 1255.27 1255.27 1256.64 1257.00 1263.45 1263.45 1264.02
 1265.14 1267.67 1268.32 1268.32 1333.30 1333.36 1334.56 1335.37 1335.37
 1335.43 1335.43 1338.39 1338.92 1338.95 1339.12 1339.12 1340.69 1340.69
 1345.07 1345.52 1530.62 1535.48 1535.48 1537.92 1537.92 1538.13 1538.70
 1539.24 1544.32 1546.78 1546.78 1550.07 1550.74 1550.74 1550.91 1559.60
 1598.13 1598.40 1598.60 1600.46 1600.46 1600.74 1600.75 1600.75 1600.91
 1601.87 1602.58 1603.16 1603.29 1603.29 1605.72 1605.72 1632.91 1632.91
 1632.98 1633.02 1633.09 1633.53 1633.53 1635.10 1640.28 1641.51 1642.19
 1642.19 1648.52 1648.52 1652.12 1668.01 3533.07 3533.59 3533.59 3533.75
 3533.88 3533.88 3533.90 3533.90 3534.01 3534.01 3534.17 3534.30 3534.34
 3534.37 3534.40 3534.49 3534.50 3534.74 3535.07 3535.07 3535.20 3535.24
 3535.39 3535.39 3535.56 3535.56 3535.69 3535.71 3535.71 3535.82 3535.82
 3536.24 3666.86 3666.86 3666.87 3666.89 3666.89 3666.95 3666.95 3667.02
 3667.38 3667.38 3667.47 3667.47 3667.52 3667.67 3667.74 3668.01 3668.11
 3668.26 3669.45 3669.45 3669.55 3669.69 3670.13 3670.13 3670.78 3671.18
 3671.29 3671.29 3673.03 3673.03 3674.45 3677.97


--------------------------------------------------------------------------------
  K point      2 =   0.125000  0.125000  0.375000  Weight =    0.031
--------------------------------------------------------------------------------

  Frequencies (cm-1) [NB: Negative implies an imaginary mode]:

  -73.42  -68.54  -62.32  -57.13  -42.49  -31.02  -31.02  -29.39  -28.39
  -12.05   26.85   26.85   40.56   40.56   41.61   41.61   43.56   47.35
   48.55   48.55   50.72   53.30   53.30   56.33   68.28   69.58   69.58
   70.20   73.19   73.19   82.54   85.40   88.55   89.42   89.63   90.05
   90.05   90.64   91.38   94.76   94.76   96.48   98.18   98.18  102.66
  103.95  103.95  108.15  108.18  110.64  111.70  111.70  115.19  115.69
  115.69  116.29  116.46  116.46  118.08  118.79  118.79  120.37  120.62
  121.42  122.61  133.79  136.92  143.93  143.93  147.56  147.56  152.01
  152.01  154.42  154.42  154.48  162.52  166.38  172.31  175.39  175.39
  175.97  178.52  178.52  178.76  181.36  184.36  186.14  187.12  187.18
  187.75  190.58  190.58  194.02  195.09  195.09  385.75  385.75  386.35
  386.35  386.62  386.62  387.21  387.21  388.08  388.97  388.99  389.68
  389.96  390.61  391.12  391.80  412.95  413.00  418.80  418.90  419.64
  419.80  421.50  421.50  421.93  421.93  424.31  424.31  424.80  424.80
  428.65  428.81  475.95  476.44  478.20  480.37  480.37  480.59  480.59
  481.06  482.86  482.86  483.01  483.01  483.74  484.49  485.69  486.37
  486.94  487.46  488.95  490.24  491.36  491.36  493.55  493.55  494.65
  495.15  495.15  495.74  497.06  497.68  497.68  498.72  500.26  500.26
  501.84  501.84  503.06  503.06  504.59  504.98  504.98  505.75  507.73
  508.50  512.70  513.16  516.26  517.75  530.61  532.73  532.74  534.95
  535.86  537.10  547.58  547.58  550.57  550.57  552.35  552.35  556.54
  556.54  560.08  566.64  745.54  745.60  745.63  745.69  745.69  746.02
  746.02  746.07  746.07  746.07  746.12  746.23  746.59  746.59  747.68
  749.23  912.81  912.82  912.87  912.87  912.88  912.88  912.95  912.96
  913.18  913.18  913.21  913.21  913.22  913.22  913.37  913.38  937.45
  940.19  940.19  940.42  940.72  941.73  941.73  945.55  946.26  950.12
  950.12  950.61  951.01  952.13  952.13  956.66 1250.03 1251.01 1251.39
 1254.50 1256.90 1256.90 1258.43 1258.43 1258.78 1259.32 1260.58 1260.58
 1261.84 1262.69 1263.73 1263.73 1333.71 1333.74 1334.21 1334.67 1336.33
 1336.33 1336.56 1336.56 1337.86 1337.86 1338.65 1338.65 1340.56 1340.62
 1343.09 1343.34 1533.21 1536.78 1539.04 1539.04 1541.93 1542.13 1542.13
 1542.61 1543.70 1543.70 1546.86 1547.37 1547.37 1547.65 1549.90 1555.70
 1598.21 1598.32 1598.63 1599.03 1601.03 1601.09 1601.09 1601.30 1601.37
 1601.37 1601.50 1601.97 1602.19 1602.19 1603.16 1603.16 1633.61 1634.47
 1635.15 1635.71 1636.14 1636.14 1638.17 1639.19 1639.75 1639.75 1639.92
 1639.92 1645.55 1645.55 1666.42 1668.00 3533.20 3533.44 3533.65 3533.65
 3533.76 3533.76 3533.93 3533.93 3533.99 3533.99 3534.22 3534.30 3534.35
 3534.38 3534.43 3534.45 3534.48 3534.66 3535.08 3535.08 3535.20 3535.22
 3535.46 3535.46 3535.47 3535.56 3535.56 3535.68 3535.68 3535.70 3535.70
 3535.94 3667.01 3667.01 3667.05 3667.05 3667.06 3667.11 3667.22 3667.22
 3667.28 3667.30 3667.30 3667.32 3667.33 3667.44 3667.72 3667.80 3667.88
 3668.10 3669.93 3670.05 3670.05 3670.16 3670.44 3670.78 3670.81 3670.81
 3671.25 3671.25 3672.41 3672.41 3677.62 3677.98


--------------------------------------------------------------------------------
  K point      3 =   0.125000  0.125000  0.625000  Weight =    0.031
--------------------------------------------------------------------------------

  Frequencies (cm-1) [NB: Negative implies an imaginary mode]:

  -73.42  -68.54  -62.32  -57.13  -42.50  -31.02  -31.02  -29.39  -28.39
  -12.05   26.85   26.85   40.56   40.56   41.61   41.61   43.56   47.35
   48.55   48.55   50.72   53.30   53.30   56.33   68.28   69.58   69.58
   70.20   73.19   73.19   82.54   85.40   88.55   89.42   89.63   90.05
   90.05   90.64   91.38   94.76   94.76   96.48   98.18   98.18  102.66
  103.95  103.95  108.15  108.18  110.64  111.70  111.70  115.19  115.69
  115.69  116.29  116.46  116.46  118.08  118.79  118.79  120.37  120.62
  121.42  122.61  133.79  136.92  143.93  143.93  147.56  147.56  152.01
  152.01  154.42  154.42  154.48  162.52  166.38  172.31  175.39  175.39
  175.97  178.52  178.52  178.76  181.36  184.36  186.14  187.12  187.18
  187.75  190.58  190.58  194.02  195.09  195.09  385.75  385.75  386.35
  386.35  386.62  386.62  387.21  387.21  388.08  388.97  388.99  389.68
  389.96  390.61  391.12  391.80  412.95  413.00  418.80  418.90  419.64
  419.80  421.50  421.50  421.93  421.93  424.31  424.31  424.80  424.80
  428.65  428.81  475.95  476.44  478.20  480.37  480.37  480.59  480.59
  481.06  482.86  482.86  483.01  483.01  483.74  484.49  485.69  486.37
  486.94  487.46  488.95  490.24  491.36  491.36  493.55  493.55  494.65
  495.15  495.15  495.74  497.06  497.68  497.68  498.72  500.26  500.26
  501.84  501.84  503.06  503.06  504.59  504.98  504.98  505.75  507.73
  508.50  512.70  513.16  516.26  517.75  530.61  532.73  532.74  534.95
  535.86  537.10  547.58  547.58  550.57  550.57  552.35  552.35  556.54
  556.54  560.08  566.64  745.54  745.60  745.63  745.69  745.69  746.02
  746.02  746.07  746.07  746.07  746.12  746.23  746.59  746.59  747.68
  749.23  912.81  912.82  912.87  912.87  912.88  912.88  912.95  912.96
  913.18  913.18  913.21  913.21  913.22  913.22  913.37  913.38  937.45
  940.19  940.19  940.42  940.72  941.73  941.73  945.55  946.26  950.12
  950.12  950.61  951.01  952.13  952.13  956.66 1250.03 1251.01 1251.39
 1254.50 1256.90 1256.90 1258.43 1258.43 1258.78 1259.32 1260.58 1260.58
 1261.84 1262.69 1263.73 1263.73 1333.71 1333.74 1334.21 1334.67 1336.33
 1336.33 1336.56 1336.56 1337.86 1337.86 1338.65 1338.65 1340.56 1340.62
 1343.09 1343.34 1533.21 1536.78 1539.04 1539.04 1541.93 1542.13 1542.13
 1542.61 1543.70 1543.70 1546.86 1547.37 1547.37 1547.65 1549.90 1555.70
 1598.21 1598.32 1598.63 1599.03 1601.03 1601.09 1601.09 1601.30 1601.37
 1601.37 1601.50 1601.97 1602.19 1602.19 1603.16 1603.16 1633.61 1634.47
 1635.15 1635.71 1636.14 1636.14 1638.17 1639.19 1639.75 1639.75 1639.92
 1639.92 1645.55 1645.55 1666.42 1668.00 3533.20 3533.44 3533.65 3533.65
 3533.76 3533.76 3533.93 3533.93 3533.99 3533.99 3534.22 3534.30 3534.35
 3534.38 3534.43 3534.45 3534.48 3534.66 3535.08 3535.08 3535.20 3535.22
 3535.46 3535.46 3535.47 3535.56 3535.56 3535.68 3535.68 3535.70 3535.70
 3535.94 3667.01 3667.01 3667.05 3667.05 3667.06 3667.11 3667.22 3667.22
 3667.28 3667.30 3667.30 3667.32 3667.33 3667.44 3667.72 3667.80 3667.88
 3668.10 3669.93 3670.05 3670.05 3670.16 3670.44 3670.78 3670.81 3670.81
 3671.25 3671.25 3672.41 3672.41 3677.62 3677.98


--------------------------------------------------------------------------------
  K point      4 =   0.125000  0.125000  0.875000  Weight =    0.031
--------------------------------------------------------------------------------

  Frequencies (cm-1) [NB: Negative implies an imaginary mode]:

  -92.48  -89.75  -85.46  -82.43  -68.62  -68.62  -62.63  -62.63  -30.32
  -18.06  -13.19   12.69   16.97   16.97   20.67   22.56   29.76   33.57
   33.57   38.78   42.42   47.15   51.58   51.58   56.89   56.89   58.94
   66.32   66.32   73.15   73.15   87.17   89.55   90.67   90.67   90.68
   91.58   94.28   94.28   94.62   94.74   98.64   98.64   99.50  102.24
  102.24  103.17  106.45  108.40  108.40  109.79  109.87  109.87  112.26
  112.75  112.75  114.63  115.84  115.84  117.82  119.39  122.49  122.63
  126.34  129.65  134.78  138.76  142.99  147.03  147.03  152.47  152.47
  153.40  153.40  159.40  159.40  166.29  170.30  171.87  173.30  173.30
  175.87  180.52  180.53  190.04  190.64  192.85  193.32  195.28  198.53
  200.55  209.52  209.68  209.68  212.55  212.55  384.94  384.94  385.49
  385.49  387.10  387.10  387.23  387.67  387.67  388.84  389.12  389.45
  389.50  390.13  391.73  392.42  412.90  413.03  418.72  418.97  419.50
  419.90  421.07  421.07  422.16  422.16  423.82  423.82  425.06  425.06
  428.53  428.91  470.05  475.63  477.50  478.61  478.61  480.02  480.02
  480.70  480.70  481.14  481.14  481.24  482.07  482.07  485.36  486.14
  488.01  488.89  489.30  489.30  489.58  490.31  492.33  492.33  496.18
  497.51  497.51  499.32  499.32  499.42  499.63  499.63  500.08  501.10
  501.92  501.92  503.80  505.29  505.29  506.60  506.74  506.74  507.98
  512.14  513.42  514.88  517.04  518.73  528.34  532.77  532.88  534.86
  537.94  540.22  546.39  546.39  548.91  548.91  553.26  553.46  553.46
  559.45  559.45  570.51  745.04  745.12  745.25  745.31  745.31  745.65
  745.65  745.74  746.23  746.23  746.46  746.56  746.76  746.76  747.05
  749.05  912.56  912.58  912.67  912.69  912.74  912.74  912.76  912.76
  913.44  913.51  913.51  913.55  913.55  913.57  913.68  913.69  931.66
  933.21  933.21  933.28  933.48  934.24  934.24  937.16  952.70  957.22
  957.22  957.89  958.35  959.51  959.51  964.26 1249.07 1249.55 1252.36
 1254.55 1254.55 1255.27 1255.27 1256.64 1257.00 1263.45 1263.45 1264.02
 1265.14 1267.67 1268.32 1268.32 1333.30 1333.36 1334.56 1335.37 1335.37
 1335.43 1335.43 1338.39 1338.92 1338.95 1339.12 1339.12 1340.69 1340.69
 1345.07 1345.52 1530.62 1535.48 1535.48 1537.92 1537.92 1538.13 1538.70
 1539.24 1544.32 1546.78 1546.78 1550.07 1550.74 1550.74 1550.91 1559.60
 1598.13 1598.40 1598.60 1600.46 1600.46 1600.74 1600.75 1600.75 1600.91
 1601.87 1602.58 1603.16 1603.29 1603.29 1605.72 1605.72 1632.91 1632.91
 1632.98 1633.02 1633.09 1633.53 1633.53 1635.10 1640.28 1641.51 1642.19
 1642.19 1648.52 1648.52 1652.12 1668.01 3533.07 3533.59 3533.59 3533.75
 3533.88 3533.88 3533.90 3533.90 3534.01 3534.01 3534.17 3534.30 3534.34
 3534.37 3534.40 3534.49 3534.50 3534.74 3535.07 3535.07 3535.20 3535.24
 3535.39 3535.39 3535.56 3535.56 3535.69 3535.71 3535.71 3535.82 3535.82
 3536.24 3666.86 3666.86 3666.87 3666.89 3666.89 3666.95 3666.95 3667.02
 3667.38 3667.38 3667.47 3667.47 3667.52 3667.67 3667.74 3668.01 3668.11
 3668.26 3669.45 3669.45 3669.55 3669.69 3670.13 3670.13 3670.78 3671.18
 3671.29 3671.29 3673.03 3673.03 3674.45 3677.97


--------------------------------------------------------------------------------
  K point      5 =   0.125000  0.375000  0.125000  Weight =    0.031
--------------------------------------------------------------------------------

  Frequencies (cm-1) [NB: Negative implies an imaginary mode]:

  -88.99  -83.67  -81.27  -80.17  -77.38  -75.21  -69.73  -66.44  -30.60
  -20.09  -19.51  -17.51   20.91   23.22   23.38   33.56   35.98   40.77
   42.12   44.37   46.46   47.27   47.80   51.70   53.17   55.24   59.06
   68.31   71.89   76.04   80.26   81.15   85.88   89.61   90.48   90.64
   92.04   92.11   92.24   93.26   94.27   95.35   96.94   98.19   99.33
  102.91  104.68  105.11  106.31  109.90  109.98  110.59  110.80  112.42
  113.62  113.91  114.13  114.26  115.22  119.04  122.29  122.31  122.47
  124.87  133.01  137.80  142.84  145.42  147.42  148.26  150.16  150.87
  155.77  156.26  156.60  159.87  160.45  160.85  168.17  170.48  177.09
  179.88  184.61  185.51  188.85  190.71  191.73  196.85  199.70  200.08
  204.24  204.81  206.15  209.86  211.41  212.92  385.38  385.73  386.36
  386.91  387.08  387.32  387.42  387.99  388.41  388.60  388.73  388.84
  389.36  389.85  389.88  391.37  414.88  415.16  417.93  418.59  419.11
  419.60  420.19  421.05  421.11  421.91  422.79  423.90  426.02  427.07
  427.63  428.31  471.96  475.11  477.43  478.27  478.36  479.52  480.14
  480.54  480.61  480.86  481.32  483.02  483.41  483.47  484.08  485.26
  486.00  486.16  489.36  489.36  491.39  491.55  492.22  495.01  495.22
  497.80  499.11  499.63  499.65  500.07  500.57  501.09  501.47  501.64
  502.26  503.25  504.38  505.43  506.16  507.27  507.35  507.61  507.85
  508.41  508.70  512.35  514.37  515.14  537.03  537.09  538.51  540.41
  541.31  542.74  543.56  545.74  546.23  546.63  547.40  550.80  552.27
  554.59  564.46  568.33  745.09  745.21  745.28  745.30  745.40  745.50
  745.51  745.75  746.18  746.27  746.35  746.65  746.71  746.72  747.31
  747.91  912.60  912.65  912.67  912.67  912.70  912.72  912.73  912.75
  913.46  913.48  913.56  913.59  913.59  913.62  913.63  913.65  931.91
[...]
 3668.65 3669.09 3669.57 3669.89 3669.97 3670.45 3670.55 3670.65 3670.97
 3671.38 3672.01 3672.86 3674.35 3675.11 3676.44


--------------------------------------------------------------------------------
  K point     31 =   0.375000  0.875000  0.625000  Weight =    0.031
--------------------------------------------------------------------------------

  Frequencies (cm-1) [NB: Negative implies an imaginary mode]:

  -68.29  -59.98  -54.65  -52.83  -49.88  -43.78  -33.25  -24.40  -22.64
  -17.75   19.12   23.18   31.47   34.09   38.63   42.14   46.30   46.83
   47.32   48.07   51.53   55.34   59.30   61.06   61.97   67.20   71.53
   73.81   75.41   77.37   78.44   82.89   83.22   88.43   90.48   92.02
   92.41   92.95   93.68   93.90   94.80   95.94   96.22   99.74   99.99
  100.27  106.42  106.96  107.92  108.30  110.39  111.32  111.94  116.06
  116.98  118.07  118.08  118.16  119.35  119.84  120.33  121.52  122.02
  122.13  126.34  134.42  136.09  140.01  142.80  147.82  148.48  150.71
  152.64  155.15  157.99  158.44  161.30  162.67  168.89  169.93  177.50
  178.65  180.34  181.98  182.31  183.95  183.96  184.74  184.88  186.14
  187.45  188.62  188.66  192.60  196.51  197.17  386.14  386.60  386.96
  387.11  387.50  387.69  387.94  387.99  388.30  388.45  388.90  388.95
  389.31  389.53  389.78  390.83  414.97  415.09  418.19  418.45  419.29
  419.48  420.52  420.87  421.40  421.73  423.21  423.66  426.43  426.85
  427.88  428.15  476.18  477.69  477.75  478.55  480.06  481.74  481.98
  482.92  483.67  483.72  484.13  484.17  484.43  484.61  484.70  485.43
  486.43  487.72  487.77  489.98  490.96  491.76  491.94  493.15  494.88
  495.02  495.44  496.99  497.03  497.45  497.63  498.39  500.97  501.51
  501.74  502.81  503.05  503.69  506.46  506.91  507.66  507.87  508.06
  508.23  509.13  511.21  513.18  513.93  534.72  537.05  537.10  537.78
  541.92  542.50  543.00  543.48  544.98  545.48  548.66  552.19  555.97
  558.59  561.22  564.70  745.54  745.55  745.60  745.62  745.65  745.79
  745.81  745.96  746.02  746.05  746.37  746.50  746.64  747.25  747.32
  748.24  912.83  912.84  912.85  912.87  912.89  912.90  912.93  912.94
  913.19  913.20  913.21  913.22  913.25  913.27  913.32  913.34  937.94
  938.88  940.19  940.25  941.11  941.49  943.31  944.69  946.97  948.32
  950.18  950.34  951.47  951.88  954.07  955.67 1251.59 1253.30 1254.24
 1254.62 1256.70 1257.25 1257.77 1257.97 1258.97 1259.38 1260.65 1261.08
 1261.47 1263.39 1263.73 1264.68 1334.40 1334.72 1335.09 1335.45 1335.93
 1336.48 1336.71 1337.62 1337.79 1338.35 1339.35 1339.45 1339.49 1340.22
 1341.57 1342.19 1534.26 1536.29 1538.05 1539.75 1540.46 1540.86 1542.47
 1542.75 1544.46 1545.23 1545.66 1547.64 1547.86 1547.99 1550.98 1553.96
 1598.96 1599.02 1599.69 1600.11 1600.57 1600.81 1600.86 1600.89 1601.21
 1601.40 1601.49 1601.52 1601.72 1602.59 1602.89 1603.04 1633.75 1634.39
 1634.97 1635.26 1635.74 1636.53 1636.98 1638.34 1638.58 1639.19 1641.33
 1643.84 1646.04 1653.24 1655.77 1661.76 3533.25 3533.41 3533.46 3533.57
 3533.77 3533.88 3533.98 3534.04 3534.07 3534.11 3534.17 3534.21 3534.23
 3534.31 3534.33 3534.37 3534.79 3535.07 3535.16 3535.18 3535.19 3535.36
 3535.36 3535.40 3535.42 3535.45 3535.59 3535.60 3535.63 3535.72 3535.82
 3535.90 3666.98 3667.00 3667.07 3667.09 3667.11 3667.14 3667.18 3667.18
 3667.21 3667.25 3667.33 3667.38 3667.43 3667.45 3667.52 3667.67 3668.35
 3668.65 3669.09 3669.57 3669.89 3669.97 3670.45 3670.55 3670.65 3670.97
 3671.38 3672.01 3672.86 3674.35 3675.11 3676.44


--------------------------------------------------------------------------------
  K point     32 =   0.375000  0.875000  0.875000  Weight =    0.031
--------------------------------------------------------------------------------

  Frequencies (cm-1) [NB: Negative implies an imaginary mode]:

  -88.99  -83.67  -81.27  -80.17  -77.38  -75.21  -69.73  -66.44  -30.60
  -20.09  -19.51  -17.51   20.91   23.22   23.38   33.56   35.98   40.77
   42.12   44.37   46.46   47.27   47.80   51.70   53.17   55.24   59.06
   68.31   71.89   76.04   80.26   81.15   85.88   89.61   90.48   90.64
   92.04   92.11   92.24   93.26   94.27   95.35   96.94   98.19   99.33
  102.91  104.68  105.11  106.31  109.90  109.98  110.59  110.80  112.42
  113.62  113.91  114.13  114.26  115.22  119.04  122.29  122.31  122.47
  124.87  133.01  137.80  142.84  145.42  147.42  148.26  150.16  150.87
  155.77  156.26  156.60  159.87  160.45  160.85  168.17  170.48  177.09
  179.88  184.61  185.51  188.85  190.71  191.73  196.85  199.70  200.08
  204.24  204.81  206.15  209.86  211.41  212.92  385.38  385.73  386.36
  386.91  387.08  387.32  387.42  387.99  388.41  388.60  388.73  388.84
  389.36  389.85  389.88  391.37  414.88  415.16  417.93  418.59  419.11
  419.60  420.19  421.05  421.11  421.91  422.79  423.90  426.02  427.07
  427.63  428.31  471.96  475.11  477.43  478.27  478.36  479.52  480.14
  480.54  480.61  480.86  481.32  483.02  483.41  483.47  484.08  485.26
  486.00  486.16  489.36  489.36  491.39  491.55  492.22  495.01  495.22
  497.80  499.11  499.63  499.65  500.07  500.57  501.09  501.47  501.64
  502.26  503.25  504.38  505.43  506.16  507.27  507.35  507.61  507.85
  508.41  508.70  512.35  514.37  515.14  537.03  537.09  538.51  540.41
  541.31  542.74  543.56  545.74  546.23  546.63  547.40  550.80  552.27
  554.59  564.46  568.33  745.09  745.21  745.28  745.30  745.40  745.50
  745.51  745.75  746.18  746.27  746.35  746.65  746.71  746.72  747.31
  747.91  912.60  912.65  912.67  912.67  912.70  912.72  912.73  912.75
  913.46  913.48  913.56  913.59  913.59  913.62  913.63  913.65  931.91
  932.42  933.19  933.20  933.76  934.05  935.40  936.48  953.55  955.13
  957.32  957.55  958.84  959.26  961.66  963.33 1250.42 1251.79 1252.61
 1254.23 1254.54 1255.00 1255.84 1256.01 1256.75 1258.54 1263.22 1263.34
 1266.45 1267.63 1272.24 1273.72 1333.86 1333.99 1334.71 1334.85 1335.59
 1336.40 1336.50 1337.26 1337.87 1337.95 1340.93 1341.36 1341.60 1342.46
 1343.32 1344.50 1531.54 1533.25 1536.16 1537.18 1538.35 1538.74 1540.25
 1540.63 1542.27 1543.26 1547.55 1548.81 1550.98 1551.16 1554.62 1557.78
 1598.88 1599.04 1599.43 1599.70 1600.35 1600.45 1600.55 1600.87 1600.90
 1600.95 1601.88 1602.54 1603.77 1604.98 1607.36 1607.48 1632.79 1632.90
 1632.93 1632.95 1633.25 1633.43 1635.15 1635.85 1637.98 1639.38 1640.42
 1641.38 1643.96 1646.71 1656.16 1663.42 3533.15 3533.33 3533.71 3533.77
 3533.82 3533.92 3533.99 3534.00 3534.12 3534.14 3534.15 3534.16 3534.18
 3534.28 3534.33 3534.36 3534.64 3534.98 3535.02 3535.16 3535.18 3535.27
 3535.31 3535.40 3535.42 3535.51 3535.61 3535.72 3535.96 3536.03 3536.08
 3536.14 3666.86 3666.87 3666.89 3666.90 3666.92 3666.93 3666.95 3667.03
 3667.33 3667.37 3667.50 3667.57 3667.65 3667.66 3667.74 3667.94 3668.21
 3668.80 3668.88 3669.45 3669.47 3669.86 3669.89 3670.03 3670.82 3670.88
 3671.08 3671.89 3671.91 3672.59 3674.98 3676.81


--------------------------------------------------------------------------------
  Phonon properties (per mole of unit cells): Temperature =    300.000 K
--------------------------------------------------------------------------------
  Zero point energy            =       27.631433 eV
  Entropy                      =        0.016072 eV/K
                               =     1550.654768 J/(mol.K)
  Helmholtz free-energy        =     -468.572138 eV
                               =   -45210.044617 kJmol-1
  Free energy (equipartition)  =     -482.807940 eV
  - T*S       (equipartition)  =        1.363096 eV
  Uvib        (equipartition)  =        9.616947 eV
  Mean kinetic energy          =       15.057472 eV
  Heat capacity - const volume =        0.014082 eV/K
                               =     1358.669755 J/(mol.K)
--------------------------------------------------------------------------------


  Final Cartesian lattice vectors (Angstroms) :

       11.130000    0.000000    0.000000
        0.000000   11.130000    0.000000
        0.000000    0.000000    9.368000


  Final cell parameters and derivatives :

--------------------------------------------------------------------------------
       a           11.130000 Angstrom     dE/de1(xx)     0.329590 eV/strain
       b           11.130000 Angstrom     dE/de2(yy)     0.329590 eV/strain
       c            9.368000 Angstrom     dE/de3(zz)    -9.602942 eV/strain
       alpha       90.000000 Degrees      dE/de4(yz)     0.000000 eV/strain
       beta        90.000000 Degrees      dE/de5(xz)     0.000000 eV/strain
       gamma       90.000000 Degrees      dE/de6(xy)     0.000000 eV/strain
--------------------------------------------------------------------------------

  Primitive cell volume =          1160.478799 Angs**3

  Density of cell =      1.375297 g/cm**3

  Non-primitive cell volume =          1160.478799 Angs**3


  Final internal derivatives :

--------------------------------------------------------------------------------
   No.  Atomic          a             b             c           Radius
        Label          (eV)          (eV)          (eV)        (eV/Angs)
--------------------------------------------------------------------------------
      1 C     c       0.000000      0.000000      0.000000      0.000000
      2 C     c       0.000000      0.000000      7.746192      0.000000
      3 C     c       0.000000      0.000000      7.746192      0.000000
      4 C     c       0.000000      0.000000      7.746192      0.000000
      5 C     c       0.000000      0.000000      7.746192      0.000000
      6 C     c       0.000000      0.000000      7.746192      0.000000
      7 C     c       0.000000      0.000000      7.746192      0.000000
      8 C     c       0.000000      0.000000      7.746192      0.000000
      9 C     c       0.000000      0.000000     -7.746192      0.000000
     10 C     c       0.000000      0.000000     -7.746192      0.000000
     11 C     c       0.000000      0.000000     -7.746192      0.000000
     12 C     c       0.000000      0.000000     -7.746192      0.000000
     13 C     c       0.000000      0.000000     -7.746192      0.000000
     14 C     c       0.000000      0.000000     -7.746192      0.000000
     15 C     c       0.000000      0.000000     -7.746192      0.000000
     16 C     c       0.000000      0.000000     -7.746192      0.000000
     17 O     c      -0.000000     -0.000000      8.889837      0.000000
     18 O     c      -0.000000     -0.000000      8.889837      0.000000
     19 O     c      -0.000000     -0.000000      8.889837      0.000000
     20 O     c      -0.000000     -0.000000      8.889837      0.000000
     21 O     c      -0.000000     -0.000000      8.889837      0.000000
     22 O     c      -0.000000     -0.000000      8.889837      0.000000
     23 O     c      -0.000000     -0.000000      8.889837      0.000000
     24 O     c      -0.000000     -0.000000      8.889837      0.000000
     25 O     c      -0.000000     -0.000000     -8.889837      0.000000
     26 O     c      -0.000000     -0.000000     -8.889837      0.000000
     27 O     c      -0.000000     -0.000000     -8.889837      0.000000
     28 O     c      -0.000000     -0.000000     -8.889837      0.000000
     29 O     c      -0.000000     -0.000000     -8.889837      0.000000
     30 O     c      -0.000000     -0.000000     -8.889837      0.000000
     31 O     c      -0.000000     -0.000000     -8.889837      0.000000
     32 O     c      -0.000000     -0.000000     -8.889837      0.000000
     33 N     c      10.874989     10.874989    -16.460954      0.000000
     34 N     c      10.874989     10.874989    -16.460954      0.000000
     35 N     c      10.874989     10.874989    -16.460954      0.000000
     36 N     c      10.874989     10.874989    -16.460954      0.000000
     37 N     c      10.874989     10.874989    -16.460954      0.000000
     38 N     c      10.874989     10.874989    -16.460954      0.000000
     39 N     c      10.874989     10.874989    -16.460954      0.000000
     40 N     c      10.874989     10.874989    -16.460954      0.000000
     41 N     c     -10.874989    -10.874989    -16.460954      0.000000
     42 N     c     -10.874989    -10.874989    -16.460954      0.000000
     43 N     c     -10.874989    -10.874989    -16.460954      0.000000
     44 N     c     -10.874989    -10.874989    -16.460954      0.000000
     45 N     c     -10.874989    -10.874989    -16.460954      0.000000
     46 N     c     -10.874989    -10.874989    -16.460954      0.000000
     47 N     c     -10.874989    -10.874989    -16.460954      0.000000
     48 N     c     -10.874989    -10.874989    -16.460954      0.000000
     49 N     c      10.874989    -10.874989     16.460954      0.000000
     50 N     c      10.874989    -10.874989     16.460954      0.000000
     51 N     c      10.874989    -10.874989     16.460954      0.000000
     52 N     c      10.874989    -10.874989     16.460954      0.000000
     53 N     c      10.874989    -10.874989     16.460954      0.000000
     54 N     c      10.874989    -10.874989     16.460954      0.000000
     55 N     c      10.874989    -10.874989     16.460954      0.000000
     56 N     c      10.874989    -10.874989     16.460954      0.000000
     57 N     c     -10.874989     10.874989     16.460954      0.000000
     58 N     c     -10.874989     10.874989     16.460954      0.000000
     59 N     c     -10.874989     10.874989     16.460954      0.000000
     60 N     c     -10.874989     10.874989     16.460954      0.000000
     61 N     c     -10.874989     10.874989     16.460954      0.000000
     62 N     c     -10.874989     10.874989     16.460954      0.000000
     63 N     c     -10.874989     10.874989     16.460954      0.000000
     64 N     c     -10.874989     10.874989     16.460954      0.000000
     65 H     c      -6.581188     -6.581188     -2.134047      0.000000
     66 H     c      -6.581188     -6.581188     -2.134047      0.000000
     67 H     c      -6.581188     -6.581188     -2.134047      0.000000
     68 H     c      -6.581188     -6.581188     -2.134047      0.000000
     69 H     c      -6.581188     -6.581188     -2.134047      0.000000
     70 H     c      -6.581188     -6.581188     -2.134047      0.000000
     71 H     c      -6.581188     -6.581188     -2.134047      0.000000
     72 H     c      -6.581188     -6.581188     -2.134047      0.000000
     73 H     c       6.581188      6.581188     -2.134047      0.000000
     74 H     c       6.581188      6.581188     -2.134047      0.000000
     75 H     c       6.581188      6.581188     -2.134047      0.000000
     76 H     c       6.581188      6.581188     -2.134047      0.000000
     77 H     c       6.581188      6.581188     -2.134047      0.000000
     78 H     c       6.581188      6.581188     -2.134047      0.000000
     79 H     c       6.581188      6.581188     -2.134047      0.000000
     80 H     c       6.581188      6.581188     -2.134047      0.000000
     81 H     c      -6.581188      6.581188      2.134047      0.000000
     82 H     c      -6.581188      6.581188      2.134047      0.000000
     83 H     c      -6.581188      6.581188      2.134047      0.000000
     84 H     c      -6.581188      6.581188      2.134047      0.000000
     85 H     c      -6.581188      6.581188      2.134047      0.000000
     86 H     c      -6.581188      6.581188      2.134047      0.000000
     87 H     c      -6.581188      6.581188      2.134047      0.000000
     88 H     c      -6.581188      6.581188      2.134047      0.000000
     89 H     c       6.581188     -6.581188      2.134047      0.000000
     90 H     c       6.581188     -6.581188      2.134047      0.000000
     91 H     c       6.581188     -6.581188      2.134047      0.000000
     92 H     c       6.581188     -6.581188      2.134047      0.000000
     93 H     c       6.581188     -6.581188      2.134047      0.000000
     94 H     c       6.581188     -6.581188      2.134047      0.000000
     95 H     c       6.581188     -6.581188      2.134047      0.000000
     96 H     c       6.581188     -6.581188      2.134047      0.000000
     97 H     c       1.638206      1.638206     10.076345      0.000000
     98 H     c       1.638206      1.638206     10.076345      0.000000
     99 H     c       1.638206      1.638206     10.076345      0.000000
    100 H     c       1.638206      1.638206     10.076345      0.000000
    101 H     c       1.638206      1.638206     10.076345      0.000000
    102 H     c       1.638206      1.638206     10.076345      0.000000
    103 H     c       1.638206      1.638206     10.076345      0.000000
    104 H     c       1.638206      1.638206     10.076345      0.000000
    105 H     c      -1.638206     -1.638206     10.076345      0.000000
    106 H     c      -1.638206     -1.638206     10.076345      0.000000
    107 H     c      -1.638206     -1.638206     10.076345      0.000000
    108 H     c      -1.638206     -1.638206     10.076345      0.000000
    109 H     c      -1.638206     -1.638206     10.076345      0.000000
    110 H     c      -1.638206     -1.638206     10.076345      0.000000
    111 H     c      -1.638206     -1.638206     10.076345      0.000000
    112 H     c      -1.638206     -1.638206     10.076345      0.000000
    113 H     c       1.638206     -1.638206    -10.076345      0.000000
    114 H     c       1.638206     -1.638206    -10.076345      0.000000
    115 H     c       1.638206     -1.638206    -10.076345      0.000000
    116 H     c       1.638206     -1.638206    -10.076345      0.000000
    117 H     c       1.638206     -1.638206    -10.076345      0.000000
    118 H     c       1.638206     -1.638206    -10.076345      0.000000
    119 H     c       1.638206     -1.638206    -10.076345      0.000000
    120 H     c       1.638206     -1.638206    -10.076345      0.000000
    121 H     c      -1.638206      1.638206    -10.076345      0.000000
    122 H     c      -1.638206      1.638206    -10.076345      0.000000
    123 H     c      -1.638206      1.638206    -10.076345      0.000000
    124 H     c      -1.638206      1.638206    -10.076345      0.000000
    125 H     c      -1.638206      1.638206    -10.076345      0.000000
    126 H     c      -1.638206      1.638206    -10.076345      0.000000
    127 H     c      -1.638206      1.638206    -10.076345      0.000000
    128 H     c      -1.638206      1.638206    -10.076345      0.000000
--------------------------------------------------------------------------------
  Maximum abs        10.874989     10.874989     16.460954      0.000000
--------------------------------------------------------------------------------


  Time to end of properties =       8.6035 seconds


  Peak dynamic memory used =      38.26 MB 


  Timing analysis for GULP :

--------------------------------------------------------------------------------
  Task / Subroutine                                          Time (Seconds)
--------------------------------------------------------------------------------
  Calculation of reciprocal space energy and derivatives          6.2626
  Calculation of real space energy and derivatives                0.3064
  Calculation of three-body energy and derivatives                0.0063
  Calculation of four-body energy and derivatives                 0.0062
  Calculation of molecules and connectivity                       0.0019
  Calculation of phonons                                          8.3416
  Symmetry generation of equivalent positions                     0.0003
--------------------------------------------------------------------------------
  Total CPU time                                                  8.6035
--------------------------------------------------------------------------------


  Job Finished at 11:59.34  8th July       2020                               

