********************************************************************************
*                       GENERAL UTILITY LATTICE PROGRAM                        *
*                                 Julian Gale                                  *
*                       Curtin Institute for Computation                       *
*                    School of Molecular and Life Sciences                     *
*                    Curtin University, Western Australia                      *
********************************************************************************
* Version = 6.0.0 * Last modified =   7th July 2020                            *
********************************************************************************
 Copying current pdf block settings to all configurations
*  optimise     - perform optimisation run                                     *
*  conv         - constant volume calculation                                  *
*  c6           - use real and reciprocal space sum for C6 terms               *
*  phonon       - calculate phonons for final geometry                         *
*  eigenvectors - output phonon eigenvectors                                   *
*  nosymmetry   - turn off symmetry after initial structure generation         *
*  full         - generate full unit cell when symmetry is removed             *
*  nofrequency  - suppress frequency output after phonon calculation           *
*  noksymmetry  - do not use Brillouin zone symmetry when generating k points  *
*  nokpoints    - do not print out list of k points                            *
*  makeEigenArrays - store all eigenvectors and frequencies after calculation  *
*  coreinfo     - output atomic information for "cores" used                   *
*                 in phonon calculations                                       *
*  PDF          - calculate Pair Distribution Functions                        *
*  nowidth      - suppress output of peak widths for PDFs                      *
*  nopartial    - suppress output of partial Pair Distribution Functions       *
********************************************************************************
* MT Dove fitted potentials for Ca/Sr titanates used for multiple configuratio *
* Both partial and width output is suppressed.                                 *
* This is a test file, so small shrink factors have been used.                 *
* Convergence of phonon properties with k points has NOT been achieved         *
********************************************************************************


  Job Started  at 11:50.38  8th July       2020                               

  Number of CPUs =     1

  Host name      = M-A0034725                              


  Total number of configurations input =      4

********************************************************************************
*  Input for Configuration =   1 : Ca0.25Sr0.75TiO3                            *
********************************************************************************

  Formula = CaSr3Ti4O12                                                 

  Number of irreducible atoms/shells =      36


  Total number atoms/shells =      36

  Dimensionality = 3               :  Bulk   



  Cartesian lattice vectors (Angstroms) :

        5.470000    0.000000    0.000000
        0.000000    5.470000    0.000000
        0.000000    0.000000    7.730000

  Cell parameters (Angstroms/Degrees):

  a =       5.4700    alpha =  90.0000
  b =       5.4700    beta  =  90.0000
  c =       7.7300    gamma =  90.0000

  Initial cell volume =         231.288557 Angs**3

  Shrinking factors =      2     2     2

  Temperature of configuration =   0.00     K 

  Pressure of configuration =         0.000 GPa 

  Fractional coordinates of asymmetric unit :

--------------------------------------------------------------------------------
   No.  Atomic       x           y          z         Charge      Occupancy
        Label      (Frac)      (Frac)     (Frac)        (e)         (Frac)  
--------------------------------------------------------------------------------
      1 Ca    c    0.950000 *  0.263000 *  0.250000 *   2.00000    0.250000    
      2 Ca    c    0.450000 *  0.737000 *  0.750000 *   2.00000    0.250000    
      3 Sr    c    0.950000    0.263000    0.250000     2.00000    0.750000    
      4 Sr    c    0.450000    0.737000    0.750000     2.00000    0.750000    
      5 Ca    c    0.446000 *  0.760000 *  0.250000 *   2.00000    0.250000    
      6 Ca    c    0.946000 *  0.240000 *  0.750000 *   2.00000    0.250000    
      7 Sr    c    0.446000    0.760000    0.250000     2.00000    0.750000    
      8 Sr    c    0.946000    0.240000    0.750000     2.00000    0.750000    
      9 Ti    c    0.965000 *  0.749000 *  0.999000 *   4.00000    1.000000    
     10 Ti    c    0.465000 *  0.251000 *  0.001000 *   4.00000    1.000000    
     11 Ti    c    0.465000 *  0.251000 *  0.499000 *   4.00000    1.000000    
     12 Ti    c    0.965000 *  0.749000 *  0.501000 *   4.00000    1.000000    
     13 O1    c    0.910000 *  0.746000 *  0.250000 *   0.84819    1.000000    
     14 O1    c    0.410000 *  0.254000 *  0.750000 *   0.84819    1.000000    
     15 O2    c    0.172000 *  0.031000 *  0.027000 *   0.84819    1.000000    
     16 O2    c    0.672000 *  0.969000 *  0.973000 *   0.84819    1.000000    
     17 O2    c    0.672000 *  0.969000 *  0.527000 *   0.84819    1.000000    
     18 O2    c    0.172000 *  0.031000 *  0.473000 *   0.84819    1.000000    
     19 O3    c    0.006000 *  0.757000 *  0.750000 *   0.84819    1.000000    
     20 O3    c    0.506000 *  0.243000 *  0.250000 *   0.84819    1.000000    
     21 O4    c    0.719000 *  0.485000 *  0.976000 *   0.84819    1.000000    
     22 O4    c    0.219000 *  0.515000 *  0.024000 *   0.84819    1.000000    
     23 O4    c    0.219000 *  0.515000 *  0.476000 *   0.84819    1.000000    
     24 O4    c    0.719000 *  0.485000 *  0.524000 *   0.84819    1.000000    
     25 O1    s    0.910000 *  0.746000 *  0.250000 *  -2.84819    1.000000    
     26 O1    s    0.410000 *  0.254000 *  0.750000 *  -2.84819    1.000000    
     27 O2    s    0.172000 *  0.031000 *  0.027000 *  -2.84819    1.000000    
     28 O2    s    0.672000 *  0.969000 *  0.973000 *  -2.84819    1.000000    
     29 O2    s    0.672000 *  0.969000 *  0.527000 *  -2.84819    1.000000    
     30 O2    s    0.172000 *  0.031000 *  0.473000 *  -2.84819    1.000000    
     31 O3    s    0.006000 *  0.757000 *  0.750000 *  -2.84819    1.000000    
     32 O3    s    0.506000 *  0.243000 *  0.250000 *  -2.84819    1.000000    
     33 O4    s    0.719000 *  0.485000 *  0.976000 *  -2.84819    1.000000    
     34 O4    s    0.219000 *  0.515000 *  0.024000 *  -2.84819    1.000000    
     35 O4    s    0.219000 *  0.515000 *  0.476000 *  -2.84819    1.000000    
     36 O4    s    0.719000 *  0.485000 *  0.524000 *  -2.84819    1.000000    
--------------------------------------------------------------------------------


  Constraints : 

--------------------------------------------------------------------------------
  Constraint no.      Unconstrained     Constrained    Coefficient    Offset
                         Variable         Variable
--------------------------------------------------------------------------------
           1                 1 x             3 x         1.00000      0.0000
           2                 1 y             3 y         1.00000      0.0000
           3                 1 z             3 z         1.00000      0.0000
           4                 2 x             4 x         1.00000      0.0000
           5                 2 y             4 y         1.00000      0.0000
           6                 2 z             4 z         1.00000      0.0000
           7                 5 x             7 x         1.00000      0.0000
           8                 5 y             7 y         1.00000      0.0000
           9                 5 z             7 z         1.00000      0.0000
          10                 6 x             8 x         1.00000      0.0000
          11                 6 y             8 y         1.00000      0.0000
          12                 6 z             8 z         1.00000      0.0000
--------------------------------------------------------------------------------

  PDF uses Gamma centred Brillouin zone with no symmetry reduction


********************************************************************************
*  Input for Configuration =   2 : CaSr(TiO3)2                                 *
********************************************************************************

  Formula = Ca2Sr2Ti4O12                                                

  Number of irreducible atoms/shells =      32


  Total number atoms/shells =      32

  Dimensionality = 3               :  Bulk   



  Cartesian lattice vectors (Angstroms) :

        5.470000    0.000000    0.000000
        0.000000    5.470000    0.000000
        0.000000    0.000000    7.730000

  Cell parameters (Angstroms/Degrees):

  a =       5.4700    alpha =  90.0000
  b =       5.4700    beta  =  90.0000
  c =       7.7300    gamma =  90.0000

  Initial cell volume =         231.288557 Angs**3

  Shrinking factors =      2     2     2

  Temperature of configuration =   0.00     K 

  Pressure of configuration =         0.000 GPa 

  Fractional coordinates of asymmetric unit :

--------------------------------------------------------------------------------
   No.  Atomic       x           y          z         Charge      Occupancy
        Label      (Frac)      (Frac)     (Frac)        (e)         (Frac)  
--------------------------------------------------------------------------------
      1 Ca    c    0.950000    0.263000    0.250000     2.00000    1.000000    
      2 Ca    c    0.450000 *  0.737000 *  0.750000 *   2.00000    1.000000    
      3 Sr    c    0.446000 *  0.760000 *  0.250000 *   2.00000    1.000000    
      4 Sr    c    0.946000 *  0.240000 *  0.750000 *   2.00000    1.000000    
      5 Ti    c    0.965000 *  0.749000 *  0.999000 *   4.00000    1.000000    
      6 Ti    c    0.465000 *  0.251000 *  0.001000 *   4.00000    1.000000    
      7 Ti    c    0.465000 *  0.251000 *  0.499000 *   4.00000    1.000000    
      8 Ti    c    0.965000 *  0.749000 *  0.501000 *   4.00000    1.000000    
      9 O1    c    0.910000 *  0.746000 *  0.250000 *   0.84819    1.000000    
     10 O1    c    0.410000 *  0.254000 *  0.750000 *   0.84819    1.000000    
     11 O2    c    0.172000 *  0.031000 *  0.027000 *   0.84819    1.000000    
     12 O2    c    0.672000 *  0.969000 *  0.973000 *   0.84819    1.000000    
     13 O2    c    0.672000 *  0.969000 *  0.527000 *   0.84819    1.000000    
     14 O2    c    0.172000 *  0.031000 *  0.473000 *   0.84819    1.000000    
     15 O3    c    0.006000 *  0.757000 *  0.750000 *   0.84819    1.000000    
     16 O3    c    0.506000 *  0.243000 *  0.250000 *   0.84819    1.000000    
     17 O4    c    0.719000 *  0.485000 *  0.976000 *   0.84819    1.000000    
     18 O4    c    0.219000 *  0.515000 *  0.024000 *   0.84819    1.000000    
     19 O4    c    0.219000 *  0.515000 *  0.476000 *   0.84819    1.000000    
     20 O4    c    0.719000 *  0.485000 *  0.524000 *   0.84819    1.000000    
     21 O1    s    0.910000 *  0.746000 *  0.250000 *  -2.84819    1.000000    
     22 O1    s    0.410000 *  0.254000 *  0.750000 *  -2.84819    1.000000    
     23 O2    s    0.172000 *  0.031000 *  0.027000 *  -2.84819    1.000000    
     24 O2    s    0.672000 *  0.969000 *  0.973000 *  -2.84819    1.000000    
     25 O2    s    0.672000 *  0.969000 *  0.527000 *  -2.84819    1.000000    
     26 O2    s    0.172000 *  0.031000 *  0.473000 *  -2.84819    1.000000    
     27 O3    s    0.006000 *  0.757000 *  0.750000 *  -2.84819    1.000000    
     28 O3    s    0.506000 *  0.243000 *  0.250000 *  -2.84819    1.000000    
     29 O4    s    0.719000 *  0.485000 *  0.976000 *  -2.84819    1.000000    
     30 O4    s    0.219000 *  0.515000 *  0.024000 *  -2.84819    1.000000    
     31 O4    s    0.219000 *  0.515000 *  0.476000 *  -2.84819    1.000000    
     32 O4    s    0.719000 *  0.485000 *  0.524000 *  -2.84819    1.000000    
--------------------------------------------------------------------------------


  PDF uses Gamma centred Brillouin zone with no symmetry reduction


********************************************************************************
*  Input for Configuration =   3 : Ca0.75Sr0.25TiO3                            *
********************************************************************************

  Formula = Ca3SrTi4O12                                                 

  Number of irreducible atoms/shells =      36


  Total number atoms/shells =      36

  Dimensionality = 3               :  Bulk   



  Cartesian lattice vectors (Angstroms) :

        5.470000    0.000000    0.000000
        0.000000    5.470000    0.000000
        0.000000    0.000000    7.730000

  Cell parameters (Angstroms/Degrees):

  a =       5.4700    alpha =  90.0000
  b =       5.4700    beta  =  90.0000
  c =       7.7300    gamma =  90.0000

  Initial cell volume =         231.288557 Angs**3

  Shrinking factors =      2     2     2

  Temperature of configuration =   0.00     K 

  Pressure of configuration =         0.000 GPa 

  Fractional coordinates of asymmetric unit :

--------------------------------------------------------------------------------
   No.  Atomic       x           y          z         Charge      Occupancy
        Label      (Frac)      (Frac)     (Frac)        (e)         (Frac)  
--------------------------------------------------------------------------------
      1 Ca    c    0.950000 *  0.263000 *  0.250000 *   2.00000    0.750000    
      2 Ca    c    0.450000 *  0.737000 *  0.750000 *   2.00000    0.750000    
      3 Sr    c    0.950000    0.263000    0.250000     2.00000    0.250000    
      4 Sr    c    0.450000    0.737000    0.750000     2.00000    0.250000    
      5 Ca    c    0.446000 *  0.760000 *  0.250000 *   2.00000    0.750000    
      6 Ca    c    0.946000 *  0.240000 *  0.750000 *   2.00000    0.750000    
      7 Sr    c    0.446000    0.760000    0.250000     2.00000    0.250000    
      8 Sr    c    0.946000    0.240000    0.750000     2.00000    0.250000    
      9 Ti    c    0.965000 *  0.749000 *  0.999000 *   4.00000    1.000000    
     10 Ti    c    0.465000 *  0.251000 *  0.001000 *   4.00000    1.000000    
     11 Ti    c    0.465000 *  0.251000 *  0.499000 *   4.00000    1.000000    
     12 Ti    c    0.965000 *  0.749000 *  0.501000 *   4.00000    1.000000    
     13 O1    c    0.910000 *  0.746000 *  0.250000 *   0.84819    1.000000    
     14 O1    c    0.410000 *  0.254000 *  0.750000 *   0.84819    1.000000    
     15 O2    c    0.172000 *  0.031000 *  0.027000 *   0.84819    1.000000    
     16 O2    c    0.672000 *  0.969000 *  0.973000 *   0.84819    1.000000    
     17 O2    c    0.672000 *  0.969000 *  0.527000 *   0.84819    1.000000    
     18 O2    c    0.172000 *  0.031000 *  0.473000 *   0.84819    1.000000    
     19 O3    c    0.006000 *  0.757000 *  0.750000 *   0.84819    1.000000    
     20 O3    c    0.506000 *  0.243000 *  0.250000 *   0.84819    1.000000    
     21 O4    c    0.719000 *  0.485000 *  0.976000 *   0.84819    1.000000    
     22 O4    c    0.219000 *  0.515000 *  0.024000 *   0.84819    1.000000    
     23 O4    c    0.219000 *  0.515000 *  0.476000 *   0.84819    1.000000    
     24 O4    c    0.719000 *  0.485000 *  0.524000 *   0.84819    1.000000    
     25 O1    s    0.910000 *  0.746000 *  0.250000 *  -2.84819    1.000000    
     26 O1    s    0.410000 *  0.254000 *  0.750000 *  -2.84819    1.000000    
     27 O2    s    0.172000 *  0.031000 *  0.027000 *  -2.84819    1.000000    
     28 O2    s    0.672000 *  0.969000 *  0.973000 *  -2.84819    1.000000    
     29 O2    s    0.672000 *  0.969000 *  0.527000 *  -2.84819    1.000000    
     30 O2    s    0.172000 *  0.031000 *  0.473000 *  -2.84819    1.000000    
     31 O3    s    0.006000 *  0.757000 *  0.750000 *  -2.84819    1.000000    
     32 O3    s    0.506000 *  0.243000 *  0.250000 *  -2.84819    1.000000    
     33 O4    s    0.719000 *  0.485000 *  0.976000 *  -2.84819    1.000000    
     34 O4    s    0.219000 *  0.515000 *  0.024000 *  -2.84819    1.000000    
     35 O4    s    0.219000 *  0.515000 *  0.476000 *  -2.84819    1.000000    
     36 O4    s    0.719000 *  0.485000 *  0.524000 *  -2.84819    1.000000    
--------------------------------------------------------------------------------


  Constraints : 

--------------------------------------------------------------------------------
  Constraint no.      Unconstrained     Constrained    Coefficient    Offset
                         Variable         Variable
--------------------------------------------------------------------------------
           1                 1 x             3 x         1.00000      0.0000
           2                 1 y             3 y         1.00000      0.0000
           3                 1 z             3 z         1.00000      0.0000
           4                 2 x             4 x         1.00000      0.0000
           5                 2 y             4 y         1.00000      0.0000
           6                 2 z             4 z         1.00000      0.0000
           7                 5 x             7 x         1.00000      0.0000
           8                 5 y             7 y         1.00000      0.0000
           9                 5 z             7 z         1.00000      0.0000
          10                 6 x             8 x         1.00000      0.0000
          11                 6 y             8 y         1.00000      0.0000
          12                 6 z             8 z         1.00000      0.0000
--------------------------------------------------------------------------------

  PDF uses Gamma centred Brillouin zone with no symmetry reduction


********************************************************************************
*  Input for Configuration =   4 : CaTiO3                                      *
********************************************************************************

  Formula = Ca4Ti4O12                                                   

  Number of irreducible atoms/shells =      32


  Total number atoms/shells =      32

  Dimensionality = 3               :  Bulk   



  Cartesian lattice vectors (Angstroms) :

        5.378500    0.000000    0.000000
        0.000000    5.441900    0.000000
        0.000000    0.000000    7.640000

  Cell parameters (Angstroms/Degrees):

  a =       5.3785    alpha =  90.0000
  b =       5.4419    beta  =  90.0000
  c =       7.6400    gamma =  90.0000

  Initial cell volume =         223.617140 Angs**3

  Shrinking factors =      2     2     2

  Temperature of configuration =   0.00     K 

  Pressure of configuration =         0.000 GPa 

  Fractional coordinates of asymmetric unit :

--------------------------------------------------------------------------------
   No.  Atomic       x           y          z         Charge      Occupancy
        Label      (Frac)      (Frac)     (Frac)        (e)         (Frac)  
--------------------------------------------------------------------------------
      1 Ca    c    0.993000    0.033000    0.250000     2.00000    1.000000    
      2 Ca    c    0.493000 *  0.467000 *  0.750000 *   2.00000    1.000000    
      3 Ca    c    0.507000 *  0.533000 *  0.250000 *   2.00000    1.000000    
      4 Ca    c    0.007000 *  0.967000 *  0.750000 *   2.00000    1.000000    
      5 Ti    c    0.000000 *  0.500000 *  0.000000 *   4.00000    1.000000    
      6 Ti    c    0.500000 *  0.000000 *  0.000000 *   4.00000    1.000000    
      7 Ti    c    0.500000 *  0.000000 *  0.500000 *   4.00000    1.000000    
      8 Ti    c    0.000000 *  0.500000 *  0.500000 *   4.00000    1.000000    
      9 O1    c    0.072000 *  0.489000 *  0.250000 *   0.84819    1.000000    
     10 O1    c    0.572000 *  0.011000 *  0.750000 *   0.84819    1.000000    
     11 O1    c    0.428000 *  0.989000 *  0.250000 *   0.84819    1.000000    
     12 O1    c    0.928000 *  0.511000 *  0.750000 *   0.84819    1.000000    
     13 O2    c    0.717000 *  0.284000 *  0.035000 *   0.84819    1.000000    
     14 O2    c    0.217000 *  0.216000 *  0.965000 *   0.84819    1.000000    
     15 O2    c    0.783000 *  0.784000 *  0.465000 *   0.84819    1.000000    
     16 O2    c    0.283000 *  0.716000 *  0.535000 *   0.84819    1.000000    
     17 O2    c    0.283000 *  0.716000 *  0.965000 *   0.84819    1.000000    
     18 O2    c    0.783000 *  0.784000 *  0.035000 *   0.84819    1.000000    
     19 O2    c    0.217000 *  0.216000 *  0.535000 *   0.84819    1.000000    
     20 O2    c    0.717000 *  0.284000 *  0.465000 *   0.84819    1.000000    
     21 O1    s    0.072000 *  0.489000 *  0.250000 *  -2.84819    1.000000    
     22 O1    s    0.572000 *  0.011000 *  0.750000 *  -2.84819    1.000000    
     23 O1    s    0.428000 *  0.989000 *  0.250000 *  -2.84819    1.000000    
     24 O1    s    0.928000 *  0.511000 *  0.750000 *  -2.84819    1.000000    
     25 O2    s    0.717000 *  0.284000 *  0.035000 *  -2.84819    1.000000    
     26 O2    s    0.217000 *  0.216000 *  0.965000 *  -2.84819    1.000000    
     27 O2    s    0.783000 *  0.784000 *  0.465000 *  -2.84819    1.000000    
     28 O2    s    0.283000 *  0.716000 *  0.535000 *  -2.84819    1.000000    
     29 O2    s    0.283000 *  0.716000 *  0.965000 *  -2.84819    1.000000    
     30 O2    s    0.783000 *  0.784000 *  0.035000 *  -2.84819    1.000000    
     31 O2    s    0.217000 *  0.216000 *  0.535000 *  -2.84819    1.000000    
     32 O2    s    0.717000 *  0.284000 *  0.465000 *  -2.84819    1.000000    
--------------------------------------------------------------------------------


  PDF uses Gamma centred Brillouin zone with no symmetry reduction


********************************************************************************
*  General input information                                                   *
********************************************************************************

  Species output for all configurations : 

--------------------------------------------------------------------------------
  Species    Type    Atomic    Atomic    Charge       Radii (Angs)     Library
                     Number     Mass       (e)     Cova   Ionic  VDW   Symbol
--------------------------------------------------------------------------------
    Sr       Core       38      87.62   2.000000   1.120  0.000  1.670          
    Ca       Core       20      40.08   2.000000   0.990  0.000  2.750          
    Ti       Core       22      47.88   4.000000   1.470  0.000  2.190          
    O        Core        8      16.00   0.848190   0.730  0.000  1.360          
    O        Shell       8       0.00  -2.848190   0.730  0.000  1.360          
--------------------------------------------------------------------------------


  Species output for PDF data: 

--------------------------------------------------------------------------------
  Species    Type       bbar     sigma_inc  sigma_coh     
                       (Angs)     (Angs^2)   (Angs^2)     
--------------------------------------------------------------------------------
    Sr       Core     0.7020E-04 0.5724E-09 0.6193E-07
    Ca       Core     0.4760E-04 0.4276E-09 0.2847E-07
    Ti       Core     -.3438E-04 0.2865E-07 0.1485E-07
    O        Core     0.5803E-04 0.2987E-11 0.4232E-07
    O        Shell    0.5803E-04 0.2987E-11 0.4232E-07
--------------------------------------------------------------------------------




********************************************************************************
*  PDF Input Settings                                                          *
********************************************************************************




!!!!!!!!!!!!!!!!!!!!!!!!!!!!!!!!!!!!!!!!!!!!!!!!!!!!!!!!!!!!!!!!!!!!!!!!!!!!!!!!
!! ADVICE  : 'pdf all' option acts on all configurations
!!!!!!!!!!!!!!!!!!!!!!!!!!!!!!!!!!!!!!!!!!!!!!!!!!!!!!!!!!!!!!!!!!!!!!!!!!!!!!!!

********************************************************************************
*  PDF parameters for each configuration 
*
*  Configuration   1
********************************************************************************
 Pair Distribution Function to be calculated up to  6.0000 A
 300 rbins to be used.
********************************************************************************

*  Configuration   2
********************************************************************************
 Pair Distribution Function to be calculated up to  6.0000 A
 300 rbins to be used.
********************************************************************************

*  Configuration   3
********************************************************************************
 Pair Distribution Function to be calculated up to  6.0000 A
 300 rbins to be used.
********************************************************************************

*  Configuration   4
********************************************************************************
 Pair Distribution Function to be calculated up to  6.0000 A
 300 rbins to be used.
********************************************************************************

  Lattice summation method               =    Ewald          (3-D)
                                         =    Parry          (2-D)
                                         =    Saunders et al (1-D)
  Accuracy factor for lattice sums       =   12.000


  Analytic derivatives to be used

  Time limit = Infinity

  Maximum range for interatomic potentials =    100000.000000 Angstroms

  C6 terms to be calculated in real/reciprocal space by one-centre decomposition

  General interatomic potentials :

--------------------------------------------------------------------------------
Atom  Types   Potential      Parameter       Value         Units   Cutoffs(Ang)
  1     2                                                            Min /  Max 
--------------------------------------------------------------------------------
Sr   c O    s Buckingham    Buckingham A     13329.779    eV        0.000 10.000
                            Buckingham rho  0.24000000    Ang       
                            Buckingham C     0.0000000    eV*Ang^6  
--------------------------------------------------------------------------------
Ti   c O    s Buckingham    Buckingham A     2526.2674    eV        0.000 10.000
                            Buckingham rho  0.28880000    Ang       
                            Buckingham C     0.0000000    eV*Ang^6  
--------------------------------------------------------------------------------
O    s O    s Buckingham    Buckingham A     481913.54    eV        0.000 10.000
                            Buckingham rho  0.14900000    Ang       
                            Buckingham C     27.880000    eV*Ang^6  
--------------------------------------------------------------------------------
Ca   c O    s Buckingham    Buckingham A     2273.8827    eV        0.000 10.000
                            Buckingham rho  0.29860000    Ang       
                            Buckingham C     0.0000000    eV*Ang^6  
--------------------------------------------------------------------------------
O    c O    s Spring (c-s)  Spring k 2       58.204115    eV*Ang^-2 0.000  0.800
                            Spring k 4       0.0000000    eV*Ang^-4 
--------------------------------------------------------------------------------

********************************************************************************
*  Output for configuration   1 : Ca0.25Sr0.75TiO3                             *
********************************************************************************


  Components of energy : 

--------------------------------------------------------------------------------
  Interatomic potentials     =          81.33507677 eV    
  Monopole - monopole (real) =        -333.31948584 eV    
  Monopole - monopole (recip)=        -400.64827490 eV    
  Monopole - monopole (total)=        -733.96776074 eV    
  Dispersion (real+recip)    =          -3.87599781 eV    
--------------------------------------------------------------------------------
  Total lattice energy       =        -656.50868178 eV    
--------------------------------------------------------------------------------
  Total lattice energy       =          -63343.0521 kJ/(mole unit cells)
--------------------------------------------------------------------------------


  Number of variables =       96

  Maximum number of calculations  =          1000
  Maximum Hessian update interval =            10
  Maximum step size               =   1.000000000
  Maximum parameter tolerance     =   0.000010000
  Maximum function  tolerance     =   0.000010000
  Maximum gradient  tolerance     =   0.001000000
  Maximum gradient  component     =   0.010000000

  Newton-Raphson optimiser to be used

  BFGS hessian update to be used

  Lower half triangular hessian to be used

  Start of bulk optimisation :

  Cycle:      0 Energy:      -656.508682  Gnorm:      0.730911  CPU:    0.024
  ** Hessian calculated **
  Cycle:      1 Energy:      -657.114460  Gnorm:      0.251587  CPU:    0.036
  Cycle:      2 Energy:      -657.238987  Gnorm:      0.157952  CPU:    0.045
  Cycle:      3 Energy:      -657.321312  Gnorm:      0.148656  CPU:    0.055
  Cycle:      4 Energy:      -657.362811  Gnorm:      0.132938  CPU:    0.063
  Cycle:      5 Energy:      -657.440778  Gnorm:      0.133917  CPU:    0.073
  Cycle:      6 Energy:      -657.505607  Gnorm:      0.177517  CPU:    0.083
  Cycle:      7 Energy:      -657.586851  Gnorm:      0.112058  CPU:    0.092
  Cycle:      8 Energy:      -657.631846  Gnorm:      0.101122  CPU:    0.100
  Cycle:      9 Energy:      -657.668837  Gnorm:      0.067147  CPU:    0.110
  Cycle:     10 Energy:      -657.693976  Gnorm:      0.080716  CPU:    0.118
  ** Hessian calculated **
  Cycle:     11 Energy:      -657.707302  Gnorm:      0.044985  CPU:    0.134
  Cycle:     12 Energy:      -657.719474  Gnorm:      0.064418  CPU:    0.143
  Cycle:     13 Energy:      -657.727870  Gnorm:      0.046581  CPU:    0.151
  Cycle:     14 Energy:      -657.735161  Gnorm:      0.047433  CPU:    0.158
  Cycle:     15 Energy:      -657.744389  Gnorm:      0.063247  CPU:    0.168
  Cycle:     16 Energy:      -657.754246  Gnorm:      0.057019  CPU:    0.177
  Cycle:     17 Energy:      -657.764662  Gnorm:      0.032393  CPU:    0.187
  Cycle:     18 Energy:      -657.769440  Gnorm:      0.032349  CPU:    0.194
  Cycle:     19 Energy:      -657.772992  Gnorm:      0.039908  CPU:    0.202
  Cycle:     20 Energy:      -657.777560  Gnorm:      0.046051  CPU:    0.211
  ** Hessian calculated **
  Cycle:     21 Energy:      -657.790057  Gnorm:      0.036836  CPU:    0.234
  ** Hessian calculated **
  Cycle:     22 Energy:      -657.792042  Gnorm:      0.024653  CPU:    0.249
  Cycle:     23 Energy:      -657.793250  Gnorm:      0.018253  CPU:    0.257
  Cycle:     24 Energy:      -657.794504  Gnorm:      0.019498  CPU:    0.266
  Cycle:     25 Energy:      -657.795906  Gnorm:      0.027531  CPU:    0.274
  Cycle:     26 Energy:      -657.798526  Gnorm:      0.027563  CPU:    0.283
  Cycle:     27 Energy:      -657.801151  Gnorm:      0.025453  CPU:    0.293
  Cycle:     28 Energy:      -657.802713  Gnorm:      0.017946  CPU:    0.300
  Cycle:     29 Energy:      -657.804279  Gnorm:      0.024631  CPU:    0.309
  Cycle:     30 Energy:      -657.805642  Gnorm:      0.021549  CPU:    0.317
  Cycle:     31 Energy:      -657.806513  Gnorm:      0.019616  CPU:    0.325
  ** Hessian calculated **
  Cycle:     32 Energy:      -657.807022  Gnorm:      0.020133  CPU:    0.341
  Cycle:     33 Energy:      -657.808031  Gnorm:      0.019645  CPU:    0.351
  Cycle:     34 Energy:      -657.808955  Gnorm:      0.014007  CPU:    0.358
  Cycle:     35 Energy:      -657.809670  Gnorm:      0.016936  CPU:    0.366
  Cycle:     36 Energy:      -657.810633  Gnorm:      0.019336  CPU:    0.375
  Cycle:     37 Energy:      -657.811693  Gnorm:      0.016922  CPU:    0.382
  Cycle:     38 Energy:      -657.812295  Gnorm:      0.012537  CPU:    0.390
  Cycle:     39 Energy:      -657.812675  Gnorm:      0.011237  CPU:    0.398
  Cycle:     40 Energy:      -657.813010  Gnorm:      0.012072  CPU:    0.406
  Cycle:     41 Energy:      -657.813489  Gnorm:      0.012811  CPU:    0.415
  ** Hessian calculated **
  Cycle:     42 Energy:      -657.814785  Gnorm:      0.011551  CPU:    0.437
  Cycle:     43 Energy:      -657.815128  Gnorm:      0.011208  CPU:    0.451
  ** Hessian calculated **
  Cycle:     44 Energy:      -657.815398  Gnorm:      0.010331  CPU:    0.467
  Cycle:     45 Energy:      -657.815588  Gnorm:      0.007987  CPU:    0.475
  Cycle:     46 Energy:      -657.815764  Gnorm:      0.009444  CPU:    0.483
  Cycle:     47 Energy:      -657.816006  Gnorm:      0.011649  CPU:    0.492
  Cycle:     48 Energy:      -657.816413  Gnorm:      0.011411  CPU:    0.502
  Cycle:     49 Energy:      -657.816746  Gnorm:      0.010686  CPU:    0.510
  Cycle:     50 Energy:      -657.816992  Gnorm:      0.008173  CPU:    0.518
  Cycle:     51 Energy:      -657.817304  Gnorm:      0.010552  CPU:    0.527
  Cycle:     52 Energy:      -657.817621  Gnorm:      0.009142  CPU:    0.535
  Cycle:     53 Energy:      -657.817789  Gnorm:      0.010461  CPU:    0.543
  ** Hessian calculated **
  Cycle:     54 Energy:      -657.818426  Gnorm:      0.009579  CPU:    0.566
  ** Hessian calculated **
  Cycle:     55 Energy:      -657.818529  Gnorm:      0.007921  CPU:    0.582
  Cycle:     56 Energy:      -657.818695  Gnorm:      0.008118  CPU:    0.592
  Cycle:     57 Energy:      -657.818838  Gnorm:      0.005903  CPU:    0.599
  Cycle:     58 Energy:      -657.818934  Gnorm:      0.005886  CPU:    0.607
  Cycle:     59 Energy:      -657.819064  Gnorm:      0.006920  CPU:    0.616
  Cycle:     60 Energy:      -657.819222  Gnorm:      0.006865  CPU:    0.626
  Cycle:     61 Energy:      -657.819332  Gnorm:      0.005382  CPU:    0.634
  Cycle:     62 Energy:      -657.819397  Gnorm:      0.004930  CPU:    0.642
  Cycle:     63 Energy:      -657.819450  Gnorm:      0.004846  CPU:    0.649
  Cycle:     64 Energy:      -657.819527  Gnorm:      0.005639  CPU:    0.657
  ** Hessian calculated **
  Cycle:     65 Energy:      -657.819581  Gnorm:      0.004824  CPU:    0.672
  Cycle:     66 Energy:      -657.819630  Gnorm:      0.003975  CPU:    0.680
  Cycle:     67 Energy:      -657.819670  Gnorm:      0.004673  CPU:    0.688
  Cycle:     68 Energy:      -657.819727  Gnorm:      0.005120  CPU:    0.697
  Cycle:     69 Energy:      -657.819816  Gnorm:      0.005274  CPU:    0.707
  Cycle:     70 Energy:      -657.819875  Gnorm:      0.004877  CPU:    0.715
  Cycle:     71 Energy:      -657.819933  Gnorm:      0.003870  CPU:    0.723
  Cycle:     72 Energy:      -657.820008  Gnorm:      0.005499  CPU:    0.732
  Cycle:     73 Energy:      -657.820080  Gnorm:      0.005088  CPU:    0.740
  Cycle:     74 Energy:      -657.820124  Gnorm:      0.005702  CPU:    0.747
  ** Hessian calculated **
  Cycle:     75 Energy:      -657.820160  Gnorm:      0.004804  CPU:    0.762
  Cycle:     76 Energy:      -657.820214  Gnorm:      0.004504  CPU:    0.772
  Cycle:     77 Energy:      -657.820260  Gnorm:      0.003302  CPU:    0.780
  Cycle:     78 Energy:      -657.820289  Gnorm:      0.003531  CPU:    0.788
  Cycle:     79 Energy:      -657.820323  Gnorm:      0.003659  CPU:    0.796
  Cycle:     80 Energy:      -657.820366  Gnorm:      0.003751  CPU:    0.806
  Cycle:     81 Energy:      -657.820398  Gnorm:      0.003052  CPU:    0.814
  Cycle:     82 Energy:      -657.820418  Gnorm:      0.002772  CPU:    0.822
  Cycle:     83 Energy:      -657.820437  Gnorm:      0.002747  CPU:    0.830
  Cycle:     84 Energy:      -657.820460  Gnorm:      0.003420  CPU:    0.837
  ** Hessian calculated **
  Cycle:     85 Energy:      -657.820477  Gnorm:      0.002697  CPU:    0.852
  Cycle:     86 Energy:      -657.820494  Gnorm:      0.002374  CPU:    0.860
  Cycle:     87 Energy:      -657.820507  Gnorm:      0.002663  CPU:    0.868
  Cycle:     88 Energy:      -657.820527  Gnorm:      0.002755  CPU:    0.878
  Cycle:     89 Energy:      -657.820552  Gnorm:      0.002844  CPU:    0.886
  Cycle:     90 Energy:      -657.820569  Gnorm:      0.002489  CPU:    0.895
  Cycle:     91 Energy:      -657.820587  Gnorm:      0.002215  CPU:    0.903
  Cycle:     92 Energy:      -657.820609  Gnorm:      0.003270  CPU:    0.913
  Cycle:     93 Energy:      -657.820634  Gnorm:      0.002835  CPU:    0.921
  Cycle:     94 Energy:      -657.820650  Gnorm:      0.003620  CPU:    0.929
  ** Hessian calculated **
  Cycle:     95 Energy:      -657.820662  Gnorm:      0.002707  CPU:    0.944
  Cycle:     96 Energy:      -657.820681  Gnorm:      0.002696  CPU:    0.954
  Cycle:     97 Energy:      -657.820696  Gnorm:      0.001961  CPU:    0.961
  Cycle:     98 Energy:      -657.820705  Gnorm:      0.001813  CPU:    0.969
  Cycle:     99 Energy:      -657.820716  Gnorm:      0.001986  CPU:    0.977
  Cycle:    100 Energy:      -657.820728  Gnorm:      0.002091  CPU:    0.984
  Cycle:    101 Energy:      -657.820739  Gnorm:      0.001676  CPU:    0.992
  Cycle:    102 Energy:      -657.820746  Gnorm:      0.001668  CPU:    1.000
  Cycle:    103 Energy:      -657.820752  Gnorm:      0.001540  CPU:    1.008
  Cycle:    104 Energy:      -657.820759  Gnorm:      0.002128  CPU:    1.016
  ** Hessian calculated **
  Cycle:    105 Energy:      -657.820765  Gnorm:      0.001502  CPU:    1.031
  Cycle:    106 Energy:      -657.820771  Gnorm:      0.001456  CPU:    1.038
  Cycle:    107 Energy:      -657.820776  Gnorm:      0.001507  CPU:    1.046
  Cycle:    108 Energy:      -657.820783  Gnorm:      0.001519  CPU:    1.056
  Cycle:    109 Energy:      -657.820791  Gnorm:      0.001612  CPU:    1.063
  Cycle:    110 Energy:      -657.820796  Gnorm:      0.001289  CPU:    1.072
  Cycle:    111 Energy:      -657.820802  Gnorm:      0.001329  CPU:    1.079
  Cycle:    112 Energy:      -657.820809  Gnorm:      0.001942  CPU:    1.089
  Cycle:    113 Energy:      -657.820818  Gnorm:      0.001633  CPU:    1.097
  Cycle:    114 Energy:      -657.820823  Gnorm:      0.002305  CPU:    1.105
  ** Hessian calculated **
  Cycle:    115 Energy:      -657.820827  Gnorm:      0.001508  CPU:    1.123
  Cycle:    116 Energy:      -657.820834  Gnorm:      0.001616  CPU:    1.132
  Cycle:    117 Energy:      -657.820839  Gnorm:      0.001106  CPU:    1.140
  Cycle:    118 Energy:      -657.820842  Gnorm:      0.000984  CPU:    1.147
  Cycle:    119 Energy:      -657.820846  Gnorm:      0.001160  CPU:    1.155
  Cycle:    120 Energy:      -657.820850  Gnorm:      0.001121  CPU:    1.165
  Cycle:    121 Energy:      -657.820853  Gnorm:      0.000981  CPU:    1.173
  Cycle:    122 Energy:      -657.820855  Gnorm:      0.000981  CPU:    1.180
  Cycle:    123 Energy:      -657.820858  Gnorm:      0.000886  CPU:    1.188
  Cycle:    124 Energy:      -657.820860  Gnorm:      0.001318  CPU:    1.196
  ** Hessian calculated **
  Cycle:    125 Energy:      -657.820862  Gnorm:      0.000848  CPU:    1.211
  Cycle:    126 Energy:      -657.820864  Gnorm:      0.000881  CPU:    1.219
  Cycle:    127 Energy:      -657.820866  Gnorm:      0.000874  CPU:    1.229
  Cycle:    128 Energy:      -657.820868  Gnorm:      0.000865  CPU:    1.239
  Cycle:    129 Energy:      -657.820871  Gnorm:      0.000943  CPU:    1.248
  Cycle:    130 Energy:      -657.820873  Gnorm:      0.000715  CPU:    1.256
  Cycle:    131 Energy:      -657.820875  Gnorm:      0.000783  CPU:    1.264
  Cycle:    132 Energy:      -657.820877  Gnorm:      0.001077  CPU:    1.272
  Cycle:    133 Energy:      -657.820880  Gnorm:      0.000944  CPU:    1.280
  Cycle:    134 Energy:      -657.820882  Gnorm:      0.001400  CPU:    1.288
  ** Hessian calculated **
  Cycle:    135 Energy:      -657.820884  Gnorm:      0.000881  CPU:    1.306
  Cycle:    136 Energy:      -657.820886  Gnorm:      0.000944  CPU:    1.316
  Cycle:    137 Energy:      -657.820888  Gnorm:      0.000637  CPU:    1.325
  Cycle:    138 Energy:      -657.820889  Gnorm:      0.000564  CPU:    1.333
  Cycle:    139 Energy:      -657.820890  Gnorm:      0.000667  CPU:    1.341
  Cycle:    140 Energy:      -657.820892  Gnorm:      0.000631  CPU:    1.350
  Cycle:    141 Energy:      -657.820893  Gnorm:      0.000574  CPU:    1.358
  Cycle:    142 Energy:      -657.820894  Gnorm:      0.000579  CPU:    1.367
  Cycle:    143 Energy:      -657.820894  Gnorm:      0.000502  CPU:    1.374
  Cycle:    144 Energy:      -657.820895  Gnorm:      0.000818  CPU:    1.382
  ** Hessian calculated **
  Cycle:    145 Energy:      -657.820896  Gnorm:      0.000485  CPU:    1.397
  Cycle:    146 Energy:      -657.820897  Gnorm:      0.000531  CPU:    1.405
  Cycle:    147 Energy:      -657.820897  Gnorm:      0.000508  CPU:    1.413
  Cycle:    148 Energy:      -657.820898  Gnorm:      0.000458  CPU:    1.420
  Cycle:    149 Energy:      -657.820899  Gnorm:      0.000552  CPU:    1.428
  Cycle:    150 Energy:      -657.820900  Gnorm:      0.000403  CPU:    1.436
  Cycle:    151 Energy:      -657.820900  Gnorm:      0.000471  CPU:    1.444
  Cycle:    152 Energy:      -657.820901  Gnorm:      0.000641  CPU:    1.452
  Cycle:    153 Energy:      -657.820902  Gnorm:      0.000579  CPU:    1.461
  Cycle:    154 Energy:      -657.820903  Gnorm:      0.000828  CPU:    1.469
  ** Hessian calculated **
  Cycle:    155 Energy:      -657.820903  Gnorm:      0.000522  CPU:    1.485
  Cycle:    156 Energy:      -657.820904  Gnorm:      0.000435  CPU:    1.492
  Cycle:    157 Energy:      -657.820905  Gnorm:      0.000389  CPU:    1.500


  **** Optimisation achieved ****


  Final energy =    -657.82090526 eV
  Final Gnorm  =       0.00033756

  Components of energy : 

--------------------------------------------------------------------------------
  Interatomic potentials     =          83.64262762 eV    
  Monopole - monopole (real) =        -155.22481157 eV    
  Monopole - monopole (recip)=        -582.24168554 eV    
  Monopole - monopole (total)=        -737.46649711 eV    
  Dispersion (real+recip)    =          -3.99703577 eV    
--------------------------------------------------------------------------------
  Total lattice energy       =        -657.82090526 eV    
--------------------------------------------------------------------------------
  Total lattice energy       =          -63469.6616 kJ/(mole unit cells)
--------------------------------------------------------------------------------

  Final fractional coordinates of atoms :

--------------------------------------------------------------------------------
   No.  Atomic        x           y          z          Radius
        Label       (Frac)      (Frac)     (Frac)       (Angs) 
--------------------------------------------------------------------------------
     1  Ca    c     0.956897    0.251049    0.248939    0.000000
     2  Ca    c     0.456897    0.750999    0.748939    0.000000
     3  Sr    c     0.956897    0.251049    0.248939    0.000000
     4  Sr    c     0.456897    0.750999    0.748939    0.000000
     5  Ca    c     0.456922    0.751008    0.248937    0.000000
     6  Ca    c     0.956922    0.251046    0.748937    0.000000
     7  Sr    c     0.456922    0.751008    0.248937    0.000000
     8  Sr    c     0.956922    0.251046    0.748937    0.000000
     9  Ti    c     0.956938    0.751035    0.998937    0.000000
    10  Ti    c     0.456936    0.251016    0.998937    0.000000
    11  Ti    c     0.456937    0.251016    0.498937    0.000000
    12  Ti    c     0.956936    0.751035    0.498937    0.000000
    13  O1    c     0.956610    0.751024    0.248937    0.000000
    14  O1    c     0.456610    0.251027    0.748937    0.000000
    15  O2    c     0.206818    0.001151    0.999091    0.000000
    16  O2    c     0.706817    0.000898    0.998782    0.000000
    17  O2    c     0.706820    0.000899    0.499091    0.000000
    18  O2    c     0.206818    0.001153    0.498782    0.000000
    19  O3    c     0.957281    0.751030    0.748937    0.000000
    20  O3    c     0.457281    0.251021    0.248937    0.000000
    21  O4    c     0.707067    0.500897    0.998776    0.000000
    22  O4    c     0.207069    0.501155    0.999097    0.000000
    23  O4    c     0.207067    0.501154    0.498776    0.000000
    24  O4    c     0.707068    0.500895    0.499098    0.000000
    25  O1    s     0.956633    0.751023    0.248937    0.000000
    26  O1    s     0.456633    0.251027    0.748937    0.000000
    27  O2    s     0.206831    0.001143    0.999082    0.000000
    28  O2    s     0.706830    0.000906    0.998792    0.000000
    29  O2    s     0.706831    0.000907    0.499082    0.000000
    30  O2    s     0.206830    0.001145    0.498792    0.000000
    31  O3    s     0.957260    0.751028    0.748936    0.000000
    32  O3    s     0.457261    0.251022    0.248936    0.000000
    33  O4    s     0.707062    0.500904    0.998787    0.000000
    34  O4    s     0.207063    0.501148    0.999088    0.000000
    35  O4    s     0.207061    0.501146    0.498786    0.000000
    36  O4    s     0.707062    0.500902    0.499087    0.000000
--------------------------------------------------------------------------------

  Final internal derivatives :

--------------------------------------------------------------------------------
   No.  Atomic          a             b             c           Radius
        Label          (eV)          (eV)          (eV)        (eV/Angs)
--------------------------------------------------------------------------------
      1 Ca    c      -0.000336      0.000851      0.000839      0.000000
      2 Ca    c      -0.000620     -0.001865      0.000840      0.000000
      3 Sr    c       0.000000      0.000000      0.000000      0.000000
      4 Sr    c       0.000000      0.000000      0.000000      0.000000
      5 Ca    c      -0.003089     -0.000579      0.000764      0.000000
      6 Ca    c      -0.002854      0.001753      0.000764      0.000000
      7 Sr    c       0.000000      0.000000      0.000000      0.000000
      8 Sr    c       0.000000      0.000000      0.000000      0.000000
      9 Ti    c       0.001115      0.004417     -0.005250      0.000000
     10 Ti    c      -0.001253     -0.004105     -0.005575      0.000000
     11 Ti    c       0.000239     -0.004227      0.000438      0.000000
     12 Ti    c      -0.000603      0.004565      0.000112      0.000000
     13 O1    c      -0.002522      0.001120      0.002909      0.000000
     14 O1    c      -0.002836     -0.000242      0.002905      0.000000
     15 O2    c      -0.004149      0.002817     -0.000065      0.000000
     16 O2    c      -0.004277     -0.003087     -0.004774      0.000000
     17 O2    c      -0.002073     -0.002528      0.000876      0.000000
     18 O2    c      -0.002714      0.002912     -0.003939      0.000000
     19 O3    c       0.001426      0.001082      0.003305      0.000000
     20 O3    c       0.000804     -0.001699      0.003301      0.000000
     21 O4    c      -0.002729      0.000453     -0.007837      0.000000
     22 O4    c      -0.002261     -0.000490     -0.001089      0.000000
     23 O4    c      -0.000711     -0.000114     -0.002840      0.000000
     24 O4    c      -0.000742      0.000287      0.004019      0.000000
     25 O1    s      -0.006989     -0.000866     -0.003146      0.000000
     26 O1    s      -0.006420     -0.000894     -0.003144      0.000000
     27 O2    s       0.003423      0.000029      0.001299      0.000000
     28 O2    s       0.003802     -0.000550      0.007093      0.000000
     29 O2    s       0.002152     -0.001215     -0.001070      0.000000
     30 O2    s       0.001892      0.000931      0.004570      0.000000
     31 O3    s       0.007448      0.001066     -0.003708      0.000000
     32 O3    s       0.008413      0.000973     -0.003704      0.000000
     33 O4    s       0.004722     -0.002821      0.009027      0.000000
     34 O4    s       0.005267      0.002957      0.006107      0.000000
     35 O4    s       0.003273      0.001800     -0.000128      0.000000
     36 O4    s       0.003202     -0.002732     -0.002900      0.000000
--------------------------------------------------------------------------------
  Maximum abs         0.008413      0.004565      0.009027      0.000000
--------------------------------------------------------------------------------


  Born effective charge tensors : 

-------------------------------------------------------------------------------
  Atom             x           y             z
-------------------------------------------------------------------------------
    1 Ca    x       0.5862     -0.0000      0.0000
            y      -0.0000      0.5862     -0.0000
            z       0.0000     -0.0000      0.5862
-------------------------------------------------------------------------------
    2 Ca    x       0.5862      0.0000      0.0000
            y       0.0000      0.5862      0.0000
            z       0.0000      0.0000      0.5862
-------------------------------------------------------------------------------
    3 Sr    x       1.7479     -0.0000      0.0000
            y      -0.0000      1.7479      0.0000
            z       0.0000      0.0000      1.7477
-------------------------------------------------------------------------------
    4 Sr    x       1.7479      0.0000      0.0000
            y       0.0000      1.7479      0.0000
            z       0.0000      0.0000      1.7477
-------------------------------------------------------------------------------
    5 Ca    x       0.5862      0.0000     -0.0000
            y       0.0000      0.5862      0.0000
            z      -0.0000      0.0000      0.5862
-------------------------------------------------------------------------------
    6 Ca    x       0.5862     -0.0000     -0.0000
            y      -0.0000      0.5862     -0.0000
            z      -0.0000     -0.0000      0.5862
-------------------------------------------------------------------------------
    7 Sr    x       1.7479      0.0000     -0.0000
            y       0.0000      1.7479      0.0000
            z      -0.0000      0.0000      1.7477
-------------------------------------------------------------------------------
    8 Sr    x       1.7479     -0.0000     -0.0000
            y      -0.0000      1.7479     -0.0000
            z      -0.0000     -0.0000      1.7477
-------------------------------------------------------------------------------
    9 Ti    x       3.6766      0.0007      0.0009
            y      -0.0004      3.6766     -0.0000
            z      -0.0013     -0.0000      3.6654
-------------------------------------------------------------------------------
   10 Ti    x       3.6766     -0.0007     -0.0009
            y       0.0004      3.6767     -0.0000
            z       0.0013     -0.0000      3.6654
-------------------------------------------------------------------------------
   11 Ti    x       3.6767     -0.0007      0.0009
            y       0.0004      3.6766      0.0000
            z      -0.0013      0.0000      3.6654
-------------------------------------------------------------------------------
   12 Ti    x       3.6766      0.0007     -0.0009
            y      -0.0004      3.6767      0.0000
            z       0.0013      0.0000      3.6654
-------------------------------------------------------------------------------
   13 O1    x      -1.6652     -0.0002     -0.0000
            y       0.0002     -1.6652     -0.0000
            z       0.0000      0.0000     -2.6700
-------------------------------------------------------------------------------
   14 O1    x      -1.6652      0.0002     -0.0000
            y      -0.0002     -1.6652      0.0000
            z       0.0000     -0.0000     -2.6699
-------------------------------------------------------------------------------
   15 O2    x      -2.1726     -0.5066     -0.0000
            y      -0.5067     -2.1727      0.0000
            z      -0.0000     -0.0000     -1.6646
-------------------------------------------------------------------------------
   16 O2    x      -2.1726      0.5067      0.0000
            y       0.5067     -2.1727      0.0000
            z       0.0000     -0.0000     -1.6646
-------------------------------------------------------------------------------
   17 O2    x      -2.1726      0.5066     -0.0000
            y       0.5067     -2.1727     -0.0000
            z      -0.0000      0.0000     -1.6646
-------------------------------------------------------------------------------
   18 O2    x      -2.1726     -0.5067      0.0000
            y      -0.5067     -2.1727     -0.0000
            z       0.0000      0.0000     -1.6646
-------------------------------------------------------------------------------
   19 O3    x      -1.6652     -0.0002      0.0000
            y       0.0002     -1.6652     -0.0000
            z      -0.0000      0.0000     -2.6699
-------------------------------------------------------------------------------
   20 O3    x      -1.6652      0.0002      0.0000
            y      -0.0002     -1.6652      0.0000
            z      -0.0000     -0.0000     -2.6700
-------------------------------------------------------------------------------
   21 O4    x      -2.1729     -0.5069     -0.0000
            y      -0.5069     -2.1729      0.0000
            z      -0.0000     -0.0000     -1.6647
-------------------------------------------------------------------------------
   22 O4    x      -2.1729      0.5069      0.0000
            y       0.5069     -2.1728      0.0000
            z       0.0000     -0.0000     -1.6647
-------------------------------------------------------------------------------
   23 O4    x      -2.1729      0.5069     -0.0000
            y       0.5069     -2.1729     -0.0000
            z      -0.0000      0.0000     -1.6647
-------------------------------------------------------------------------------
   24 O4    x      -2.1729     -0.5069      0.0000
            y      -0.5069     -2.1728     -0.0000
            z       0.0000      0.0000     -1.6647
-------------------------------------------------------------------------------




  Elastic Constant Matrix: (Units=GPa)

-------------------------------------------------------------------------------
  Indices      1         2         3         4         5         6    
-------------------------------------------------------------------------------
       1    446.7251   89.3380  140.3346    0.0000    0.0000   -0.0000
       2     89.3380  446.7246  140.3345    0.0000    0.0000   -0.0000
       3    140.3346  140.3345  397.7696    0.0000    0.0000   -0.0000
       4      0.0000    0.0000    0.0000  178.4821   -0.0000    0.0000
       5      0.0000    0.0000    0.0000   -0.0000  178.4819    0.0000
       6     -0.0000   -0.0000   -0.0000    0.0000    0.0000  127.5807
-------------------------------------------------------------------------------


  Elastic Compliance Matrix: (Units=1/GPa)

-------------------------------------------------------------------------------
  Indices      1         2         3         4         5         6    
-------------------------------------------------------------------------------
       1    0.002543 -0.000255 -0.000807  0.000000 -0.000000  0.000000
       2   -0.000255  0.002543 -0.000807 -0.000000 -0.000000 -0.000000
       3   -0.000807 -0.000807  0.003084 -0.000000 -0.000000  0.000000
       4    0.000000 -0.000000 -0.000000  0.005603  0.000000 -0.000000
       5   -0.000000 -0.000000 -0.000000  0.000000  0.005603 -0.000000
       6    0.000000 -0.000000  0.000000 -0.000000 -0.000000  0.007838
-------------------------------------------------------------------------------

  Mechanical properties :

-------------------------------------------------------------------------------
  Convention :                    Reuss         Voigt         Hill
-------------------------------------------------------------------------------
  Bulk  Modulus (GPa)     =     225.69141     225.69261     225.69201
  Shear Modulus (GPa)     =     154.18041     158.32310     156.25175
-------------------------------------------------------------------------------
  Velocity S-wave (km/s)  =       5.59314       5.66779       5.63059
  Velocity P-wave (km/s)  =       9.35435       9.41408       9.38426
-------------------------------------------------------------------------------
  Compressibility (1/GPa) =    0.00443083
-------------------------------------------------------------------------------
  Stress axis :                     x             y             z
-------------------------------------------------------------------------------
  Youngs Moduli (GPa)     =     393.22117     393.22077     324.29400
-------------------------------------------------------------------------------
  Poissons Ratio (x)      =                     0.10027       0.26179
  Poissons Ratio (y)      =       0.10027                     0.26179
  Poissons Ratio (z)      =       0.31743       0.31743
-------------------------------------------------------------------------------


  Piezoelectric Strain Matrix: (Units=C/m**2)

-------------------------------------------------------------------------------
  Indices      1         2         3         4         5         6    
-------------------------------------------------------------------------------
       x    -0.06691  -0.01684  -0.02548  -0.00000   0.00232   0.00101
       y     0.00106   0.00133   0.00014   0.00232   0.00000  -0.01446
       z     0.00153   0.00153   0.00218   0.00011  -0.02394   0.00000
-------------------------------------------------------------------------------


  Piezoelectric Stress Matrix: (Units=10**-11 C/N)

-------------------------------------------------------------------------------
  Indices      1         2         3         4         5         6    
-------------------------------------------------------------------------------
       x    -0.01453  -0.00052  -0.00110  -0.00000   0.00130   0.00079
       y     0.00022   0.00030  -0.00015   0.00130   0.00000  -0.01134
       z     0.00017   0.00017   0.00043   0.00006  -0.01341   0.00000
-------------------------------------------------------------------------------


  Static dielectric constant tensor : 

-------------------------------------------------------------------------------
              x         y         z
-------------------------------------------------------------------------------
       x    23.48564   0.00000  -0.00001
       y     0.00000  23.48707  -0.00000
       z    -0.00001  -0.00000  23.20135
--------------------------------------------------------------------------------

  High frequency dielectric constant tensor : 

-------------------------------------------------------------------------------
              x         y         z
-------------------------------------------------------------------------------
       x     2.52685   0.00000  -0.00000
       y     0.00000   2.52685  -0.00000
       z    -0.00000  -0.00000   2.52476
-------------------------------------------------------------------------------

  Static refractive indices : 

-------------------------------------------------------------------------------
    1 =    4.81678      2 =    4.84620      3 =    4.84635
-------------------------------------------------------------------------------

  High frequency refractive indices : 

-------------------------------------------------------------------------------
    1 =    1.58895      2 =    1.58961      3 =    1.58961
-------------------------------------------------------------------------------


  Phonon Calculation : 

  Number of k points for this configuration =        8

--------------------------------------------------------------------------------
 (Core) Atomic information:
--------------------------------------------------------------------------------
Atom  1(CaSr):
  Mass     =  0.1258E-24 kg
  bbar     =  0.6455E-04 Ang
  sigma_inc     =  0.5362E-09 Ang^2
  Sigma_coh     =  0.5236E-07 Ang^2
  Cartesian  position =   5.23422437    1.37323806    1.92430195  Ang
  Fractional position =   0.95689659    0.25104901    0.24893945
Atom  2(CaSr):
  Mass     =  0.1258E-24 kg
  bbar     =  0.6455E-04 Ang
  sigma_inc     =  0.5362E-09 Ang^2
  Sigma_coh     =  0.5236E-07 Ang^2
  Cartesian  position =   2.49922490    4.10796339    5.78930195  Ang
  Fractional position =   0.45689669    0.75099879    0.74893945
Atom  3(CaSr):
  Mass     =  0.1258E-24 kg
  bbar     =  0.6455E-04 Ang
  sigma_inc     =  0.5362E-09 Ang^2
  Sigma_coh     =  0.5236E-07 Ang^2
  Cartesian  position =   2.49936396    4.10801347    1.92428168  Ang
  Fractional position =   0.45692211    0.75100795    0.24893683
Atom  4(CaSr):
  Mass     =  0.1258E-24 kg
  bbar     =  0.6455E-04 Ang
  sigma_inc     =  0.5362E-09 Ang^2
  Sigma_coh     =  0.5236E-07 Ang^2
  Cartesian  position =   5.23436266    1.37322411    5.78928169  Ang
  Fractional position =   0.95692188    0.25104646    0.74893683
Atom  5(Ti):
  Mass     =  0.7951E-25 kg
  bbar     = -0.3438E-04 Ang
  sigma_inc     =  0.2865E-07 Ang^2
  Sigma_coh     =  0.1485E-07 Ang^2
  Cartesian  position =   5.23444821    4.10816181    7.72178001  Ang
  Fractional position =   0.95693752    0.75103507    0.99893661
Atom  6(Ti):
  Mass     =  0.7951E-25 kg
  bbar     = -0.3438E-04 Ang
  sigma_inc     =  0.2865E-07 Ang^2
  Sigma_coh     =  0.1485E-07 Ang^2
  Cartesian  position =   2.49944054    1.37305742    7.72177921  Ang
  Fractional position =   0.45693611    0.25101598    0.99893651
Atom  7(Ti):
  Mass     =  0.7951E-25 kg
  bbar     = -0.3438E-04 Ang
  sigma_inc     =  0.2865E-07 Ang^2
  Sigma_coh     =  0.1485E-07 Ang^2
  Cartesian  position =   2.49944582    1.37305688    3.85678278  Ang
  Fractional position =   0.45693708    0.25101588    0.49893697
Atom  8(Ti):
  Mass     =  0.7951E-25 kg
  bbar     = -0.3438E-04 Ang
  sigma_inc     =  0.2865E-07 Ang^2
  Sigma_coh     =  0.1485E-07 Ang^2
  Cartesian  position =   5.23444236    4.10816220    3.85678198  Ang
  Fractional position =   0.95693645    0.75103514    0.49893687
Atom  9(O1):
  Mass     =  0.2657E-25 kg
  bbar     =  0.5803E-04 Ang
  sigma_inc     =  0.2987E-11 Ang^2
  Sigma_coh     =  0.4232E-07 Ang^2
  Cartesian  position =   5.23265736    4.10810212    1.92428524  Ang
  Fractional position =   0.95661012    0.75102415    0.24893729
Atom 10(O1):
  Mass     =  0.2657E-25 kg
  bbar     =  0.5803E-04 Ang
  sigma_inc     =  0.2987E-11 Ang^2
  Sigma_coh     =  0.4232E-07 Ang^2
  Cartesian  position =   2.49765677    1.37311551    5.78928524  Ang
  Fractional position =   0.45661001    0.25102660    0.74893729
Atom 11(O2):
  Mass     =  0.2657E-25 kg
  bbar     =  0.5803E-04 Ang
  sigma_inc     =  0.2987E-11 Ang^2
  Sigma_coh     =  0.4232E-07 Ang^2
  Cartesian  position =   1.13129618    0.00629574    7.72297085  Ang
  Fractional position =   0.20681831    0.00115096    0.99909067
Atom 12(O2):
  Mass     =  0.2657E-25 kg
  bbar     =  0.5803E-04 Ang
  sigma_inc     =  0.2987E-11 Ang^2
  Sigma_coh     =  0.4232E-07 Ang^2
  Cartesian  position =   3.86629109    0.00490948    7.72058823  Ang
  Fractional position =   0.70681738    0.00089753    0.99878244
Atom 13(O2):
  Mass     =  0.2657E-25 kg
  bbar     =  0.5803E-04 Ang
  sigma_inc     =  0.2987E-11 Ang^2
  Sigma_coh     =  0.4232E-07 Ang^2
  Cartesian  position =   3.86630575    0.00492010    3.85797039  Ang
  Fractional position =   0.70682006    0.00089947    0.49909061
Atom 14(O2):
  Mass     =  0.2657E-25 kg
  bbar     =  0.5803E-04 Ang
  sigma_inc     =  0.2987E-11 Ang^2
  Sigma_coh     =  0.4232E-07 Ang^2
  Cartesian  position =   1.13129421    0.00630495    3.85558274  Ang
  Fractional position =   0.20681795    0.00115264    0.49878173
Atom 15(O3):
  Mass     =  0.2657E-25 kg
  bbar     =  0.5803E-04 Ang
  sigma_inc     =  0.2987E-11 Ang^2
  Sigma_coh     =  0.4232E-07 Ang^2
  Cartesian  position =   5.23632914    4.10813556    5.78928326  Ang
  Fractional position =   0.95728138    0.75103027    0.74893703
Atom 16(O3):
  Mass     =  0.2657E-25 kg
  bbar     =  0.5803E-04 Ang
  sigma_inc     =  0.2987E-11 Ang^2
  Sigma_coh     =  0.4232E-07 Ang^2
  Cartesian  position =   2.50132820    1.37308349    1.92428325  Ang
  Fractional position =   0.45728121    0.25102075    0.24893703
Atom 17(O4):
  Mass     =  0.2657E-25 kg
  bbar     =  0.5803E-04 Ang
  sigma_inc     =  0.2987E-11 Ang^2
  Sigma_coh     =  0.4232E-07 Ang^2
  Cartesian  position =   3.86765481    2.73990481    7.72053587  Ang
  Fractional position =   0.70706669    0.50089668    0.99877566
Atom 18(O4):
  Mass     =  0.2657E-25 kg
  bbar     =  0.5803E-04 Ang
  sigma_inc     =  0.2987E-11 Ang^2
  Sigma_coh     =  0.4232E-07 Ang^2
  Cartesian  position =   1.13266602    2.74131951    7.72302044  Ang
  Fractional position =   0.20706874    0.50115530    0.99909708
Atom 19(O4):
  Mass     =  0.2657E-25 kg
  bbar     =  0.5803E-04 Ang
  sigma_inc     =  0.2987E-11 Ang^2
  Sigma_coh     =  0.4232E-07 Ang^2
  Cartesian  position =   1.13265821    2.74131062    3.85553674  Ang
  Fractional position =   0.20706732    0.50115368    0.49877577
Atom 20(O4):
  Mass     =  0.2657E-25 kg
  bbar     =  0.5803E-04 Ang
  sigma_inc     =  0.2987E-11 Ang^2
  Sigma_coh     =  0.4232E-07 Ang^2
  Cartesian  position =   3.86766310    2.73989548    3.85802632  Ang
  Fractional position =   0.70706821    0.50089497    0.49909784
--------------------------------------------------------------------------------
  Start of PDF calculation
--------------------------------------------------------------------------------

  PDF information:

  Maximum radius        =  6.000 Ang
  Number density        =  0.086 Ang(^-3)
  (Sum{c_i bbar_i} )^2  =  0.1669E-08

  Using primitive cell parameters   5.4700   5.4700   7.7300
  Testing primitive vectors with x,y,z=-(n+1) to n, n=    2
[width output suppressed by keyword nowidth]
  PDF statistics:

  Maximum width^2  was  0.2437E-01 Ang^2
  Number of pairs      1480
  Angular frequency range used:
   0.163314E+14 to  0.153887E+15 rad/s 
   0.259923E+01 to  0.244919E+02 THz   

  PDF output being written to example46_Cap25Srp75TiO3.pdfs
--------------------------------------------------------------------------------
  End of PDF calculation
--------------------------------------------------------------------------------

--------------------------------------------------------------------------------
  Phonon properties (per mole of unit cells): Temperature =      0.000 K
--------------------------------------------------------------------------------
  Zero point energy            =        1.358636 eV
--------------------------------------------------------------------------------

  Phonon density of states : 

--------------------------------------------------------------------------------
 Frequency (cm-1) Density of States                                             
--------------------------------------------------------------------------------
    0.00000 |                                                              0.000
   12.76501 |                                                              0.000
   25.53002 |                                                              0.000
   38.29503 |                                                              0.000
   51.06004 |                                                              0.000
   63.82505 |                                                              0.000
   76.59006 |************                                                  0.017
   89.35507 |************************************************************  0.083
  102.12008 |************************************                          0.050
  114.88509 |************************                                      0.033
  127.65010 |************                                                  0.017
  140.41511 |************                                                  0.017
  153.18012 |************************                                      0.033
  165.94513 |                                                              0.000
  178.71014 |************************************************              0.067
  191.47515 |************                                                  0.017
  204.24016 |                                                              0.000
  217.00517 |                                                              0.000
  229.77018 |************                                                  0.017
  242.53519 |************************************                          0.050
  255.30020 |************                                                  0.017
  268.06521 |                                                              0.000
  280.83022 |************************************                          0.050
  293.59523 |                                                              0.000
  306.36024 |************                                                  0.017
  319.12525 |************                                                  0.017
  331.89026 |                                                              0.000
  344.65527 |                                                              0.000
  357.42028 |************                                                  0.017
  370.18529 |************************                                      0.033
  382.95030 |************************                                      0.033
  395.71531 |************************                                      0.033
  408.48032 |************                                                  0.017
  421.24533 |                                                              0.000
  434.01034 |************************                                      0.033
  446.77535 |************                                                  0.017
  459.54036 |                                                              0.000
  472.30537 |                                                              0.000
  485.07038 |************                                                  0.017
  497.83539 |************                                                  0.017
  510.60040 |                                                              0.000
  523.36541 |************                                                  0.017
  536.13042 |************                                                  0.017
  548.89543 |************                                                  0.017
  561.66044 |                                                              0.000
  574.42545 |************************************                          0.050
  587.19046 |************************                                      0.033
  599.95547 |************                                                  0.017
  612.72048 |                                                              0.000
  625.48549 |                                                              0.000
  638.25050 |                                                              0.000
  651.01551 |************************                                      0.033
  663.78052 |                                                              0.000
  676.54553 |************************                                      0.033
  689.31054 |                                                              0.000
  702.07555 |                                                              0.000
  714.84056 |                                                              0.000
  727.60557 |                                                              0.000
  740.37058 |                                                              0.000
  753.13559 |                                                              0.000
  765.90060 |                                                              0.000
  778.66561 |                                                              0.000
  791.43062 |************************************                          0.050
  804.19563 |************                                                  0.017
--------------------------------------------------------------------------------



  Time to end of optimisation =       1.6915 seconds


********************************************************************************
*  Output for configuration   2 : CaSr(TiO3)2                                  *
********************************************************************************


  Components of energy : 

--------------------------------------------------------------------------------
  Interatomic potentials     =          82.40857868 eV    
  Monopole - monopole (real) =        -333.31948584 eV    
  Monopole - monopole (recip)=        -400.64827490 eV    
  Monopole - monopole (total)=        -733.96776074 eV    
  Dispersion (real+recip)    =          -3.87599781 eV    
--------------------------------------------------------------------------------
  Total lattice energy       =        -655.43517987 eV    
--------------------------------------------------------------------------------
  Total lattice energy       =          -63239.4756 kJ/(mole unit cells)
--------------------------------------------------------------------------------


  Number of variables =       93

  Maximum number of calculations  =          1000
  Maximum Hessian update interval =            10
  Maximum step size               =   1.000000000
  Maximum parameter tolerance     =   0.000010000
  Maximum function  tolerance     =   0.000010000
  Maximum gradient  tolerance     =   0.001000000
  Maximum gradient  component     =   0.010000000

  Newton-Raphson optimiser to be used

  BFGS hessian update to be used

  Lower half triangular hessian to be used

  Start of bulk optimisation :

  Cycle:      0 Energy:      -655.435180  Gnorm:      0.749131  CPU:    1.698
  ** Hessian calculated **
  Cycle:      1 Energy:      -656.612352  Gnorm:      0.085940  CPU:    1.707
  Cycle:      2 Energy:      -656.673124  Gnorm:      0.051023  CPU:    1.714
  Cycle:      3 Energy:      -656.724075  Gnorm:      0.040804  CPU:    1.722
  Cycle:      4 Energy:      -656.737759  Gnorm:      0.016674  CPU:    1.729
  Cycle:      5 Energy:      -656.739983  Gnorm:      0.010571  CPU:    1.735
  Cycle:      6 Energy:      -656.740230  Gnorm:      0.001698  CPU:    1.742
  Cycle:      7 Energy:      -656.740249  Gnorm:      0.000956  CPU:    1.748


  **** Optimisation achieved ****


  Final energy =    -656.74025397 eV
  Final Gnorm  =       0.00044429

  Components of energy : 

--------------------------------------------------------------------------------
  Interatomic potentials     =          84.72337160 eV    
  Monopole - monopole (real) =        -155.22489986 eV    
  Monopole - monopole (recip)=        -582.24168553 eV    
  Monopole - monopole (total)=        -737.46658538 eV    
  Dispersion (real+recip)    =          -3.99704019 eV    
--------------------------------------------------------------------------------
  Total lattice energy       =        -656.74025397 eV    
--------------------------------------------------------------------------------
  Total lattice energy       =          -63365.3953 kJ/(mole unit cells)
--------------------------------------------------------------------------------

  Final fractional coordinates of atoms :

--------------------------------------------------------------------------------
   No.  Atomic        x           y          z          Radius
        Label       (Frac)      (Frac)     (Frac)       (Angs) 
--------------------------------------------------------------------------------
     1  Ca    c     0.950000    0.263000    0.250000    0.000000
     2  Ca    c     0.450000    0.763101    0.750000    0.000000
     3  Sr    c     0.449969    0.763061    0.250000    0.000000
     4  Sr    c     0.949969    0.263040    0.750000    0.000000
     5  Ti    c     0.949995    0.763046    0.999997    0.000000
     6  Ti    c     0.449995    0.263055    0.000003    0.000000
     7  Ti    c     0.449995    0.263055    0.499997    0.000000
     8  Ti    c     0.949995    0.763046    0.500003    0.000000
     9  O1    c     0.950058    0.763062    0.250000    0.000000
    10  O1    c     0.450058    0.263039    0.750000    0.000000
    11  O2    c     0.199939    0.013110    0.999988    0.000000
    12  O2    c     0.699939    0.012991    0.000012    0.000000
    13  O2    c     0.699939    0.012991    0.499988    0.000000
    14  O2    c     0.199939    0.013110    0.500012    0.000000
    15  O3    c     0.949974    0.763061    0.750000    0.000000
    16  O3    c     0.449974    0.263040    0.250000    0.000000
    17  O4    c     0.700045    0.513002    0.000020    0.000000
    18  O4    c     0.200045    0.513099    0.999980    0.000000
    19  O4    c     0.200045    0.513099    0.500020    0.000000
    20  O4    c     0.700045    0.513002    0.499980    0.000000
    21  O1    s     0.950055    0.763062    0.250000    0.000000
    22  O1    s     0.450055    0.263039    0.750000    0.000000
    23  O2    s     0.199945    0.013104    0.999987    0.000000
    24  O2    s     0.699945    0.012997    0.000013    0.000000
    25  O2    s     0.699945    0.012997    0.499987    0.000000
    26  O2    s     0.199945    0.013104    0.500013    0.000000
    27  O3    s     0.949975    0.763061    0.750000    0.000000
    28  O3    s     0.449975    0.263040    0.250000    0.000000
    29  O4    s     0.700044    0.513005    0.000016    0.000000
    30  O4    s     0.200044    0.513096    0.999984    0.000000
    31  O4    s     0.200044    0.513096    0.500016    0.000000
    32  O4    s     0.700044    0.513005    0.499984    0.000000
--------------------------------------------------------------------------------

  Final internal derivatives :

--------------------------------------------------------------------------------
   No.  Atomic          a             b             c           Radius
        Label          (eV)          (eV)          (eV)        (eV/Angs)
--------------------------------------------------------------------------------
      1 Ca    c       0.000000      0.000000      0.000000      0.000000
      2 Ca    c       0.001212      0.006123     -0.000000      0.000000
      3 Sr    c      -0.000633      0.001917      0.000000      0.000000
      4 Sr    c      -0.000633     -0.001917      0.000000      0.000000
      5 Ti    c      -0.003174      0.004651     -0.008903      0.000000
      6 Ti    c      -0.003174     -0.004651      0.008903      0.000000
      7 Ti    c      -0.003174     -0.004651     -0.008903      0.000000
      8 Ti    c      -0.003174      0.004651      0.008903      0.000000
      9 O1    c      -0.000854      0.003659     -0.000000      0.000000
     10 O1    c      -0.000854     -0.003659     -0.000000      0.000000
     11 O2    c      -0.001446      0.004969      0.006031      0.000000
[...]
            z      -0.0000     -0.0000     -1.6416
-------------------------------------------------------------------------------
   19 O2    x      -2.0653      0.4387      0.0000
            y       0.4245     -2.0868     -0.0000
            z       0.0000      0.0000     -1.6416
-------------------------------------------------------------------------------
   20 O2    x      -2.0653     -0.4387     -0.0000
            y      -0.4245     -2.0868     -0.0000
            z      -0.0000      0.0000     -1.6416
-------------------------------------------------------------------------------




  Elastic Constant Matrix: (Units=GPa)

-------------------------------------------------------------------------------
  Indices      1         2         3         4         5         6    
-------------------------------------------------------------------------------
       1    478.0635  117.0871  156.7347    0.0000    0.0000    0.0000
       2    117.0871  485.0472  152.4820    0.0000    0.0000    0.0000
       3    156.7347  152.4820  448.1604    0.0000    0.0000    0.0000
       4      0.0000    0.0000    0.0000  180.5488    0.0000    0.0000
       5      0.0000    0.0000    0.0000    0.0000  182.6671    0.0000
       6      0.0000    0.0000    0.0000    0.0000    0.0000  144.3085
-------------------------------------------------------------------------------


  Elastic Compliance Matrix: (Units=1/GPa)

-------------------------------------------------------------------------------
  Indices      1         2         3         4         5         6    
-------------------------------------------------------------------------------
       1    0.002416 -0.000356 -0.000724 -0.000000 -0.000000 -0.000000
       2   -0.000356  0.002361 -0.000679 -0.000000 -0.000000 -0.000000
       3   -0.000724 -0.000679  0.002716 -0.000000 -0.000000 -0.000000
       4   -0.000000 -0.000000 -0.000000  0.005539 -0.000000 -0.000000
       5   -0.000000 -0.000000 -0.000000 -0.000000  0.005474 -0.000000
       6   -0.000000 -0.000000 -0.000000 -0.000000 -0.000000  0.006930
-------------------------------------------------------------------------------

  Mechanical properties :

-------------------------------------------------------------------------------
  Convention :                    Reuss         Voigt         Hill
-------------------------------------------------------------------------------
  Bulk  Modulus (GPa)     =     251.53654     251.54206     251.53930
  Shear Modulus (GPa)     =     165.13759     167.16940     166.15350
-------------------------------------------------------------------------------
  Velocity S-wave (km/s)  =       6.39458       6.43380       6.41422
  Velocity P-wave (km/s)  =      10.80765      10.83870      10.82318
-------------------------------------------------------------------------------
  Compressibility (1/GPa) =    0.00397557
-------------------------------------------------------------------------------
  Stress axis :                     x             y             z
-------------------------------------------------------------------------------
  Youngs Moduli (GPa)     =     413.86379     423.56182     368.25030
-------------------------------------------------------------------------------
  Poissons Ratio (x)      =                     0.15064       0.26662
  Poissons Ratio (y)      =       0.14719                     0.25000
  Poissons Ratio (z)      =       0.29965       0.28756
-------------------------------------------------------------------------------


  Piezoelectric Strain Matrix: (Units=C/m**2)

-------------------------------------------------------------------------------
  Indices      1         2         3         4         5         6    
-------------------------------------------------------------------------------
       x     0.00000   0.00000  -0.00000   0.00000  -0.00000  -0.00000
       y    -0.00000  -0.00000   0.00000  -0.00000   0.00000   0.00000
       z     0.00000   0.00000   0.00000   0.00000   0.00000   0.00000
-------------------------------------------------------------------------------


  Piezoelectric Stress Matrix: (Units=10**-11 C/N)

-------------------------------------------------------------------------------
  Indices      1         2         3         4         5         6    
-------------------------------------------------------------------------------
       x     0.00000   0.00000  -0.00000   0.00000  -0.00000  -0.00000
       y    -0.00000  -0.00000   0.00000  -0.00000   0.00000   0.00000
       z     0.00000   0.00000   0.00000   0.00000   0.00000   0.00000
-------------------------------------------------------------------------------


  Static dielectric constant tensor : 

-------------------------------------------------------------------------------
              x         y         z
-------------------------------------------------------------------------------
       x    16.81756   0.00000  -0.00000
       y     0.00000  19.33869  -0.00000
       z    -0.00000  -0.00000  17.68007
--------------------------------------------------------------------------------

  High frequency dielectric constant tensor : 

-------------------------------------------------------------------------------
              x         y         z
-------------------------------------------------------------------------------
       x     2.54567   0.00000  -0.00000
       y     0.00000   2.54691  -0.00000
       z    -0.00000  -0.00000   2.54176
-------------------------------------------------------------------------------

  Static refractive indices : 

-------------------------------------------------------------------------------
    1 =    4.10092      2 =    4.20477      3 =    4.39758
-------------------------------------------------------------------------------

  High frequency refractive indices : 

-------------------------------------------------------------------------------
    1 =    1.59429      2 =    1.59552      3 =    1.59591
-------------------------------------------------------------------------------


  Phonon Calculation : 

  Number of k points for this configuration =        8

--------------------------------------------------------------------------------
 (Core) Atomic information:
--------------------------------------------------------------------------------
Atom  1(Ca):
  Mass     =  0.6656E-25 kg
  bbar     =  0.4760E-04 Ang
  sigma_inc     =  0.4276E-09 Ang^2
  Sigma_coh     =  0.2847E-07 Ang^2
  Cartesian  position =   5.34085050    0.17958270    1.91000000  Ang
  Fractional position =   0.99300000    0.03300000    0.25000000
Atom  2(Ca):
  Mass     =  0.6656E-25 kg
  bbar     =  0.4760E-04 Ang
  sigma_inc     =  0.4276E-09 Ang^2
  Sigma_coh     =  0.2847E-07 Ang^2
  Cartesian  position =   2.65160050    2.90063553    5.73000000  Ang
  Fractional position =   0.49300000    0.53301890    0.75000000
Atom  3(Ca):
  Mass     =  0.6656E-25 kg
  bbar     =  0.4760E-04 Ang
  sigma_inc     =  0.4276E-09 Ang^2
  Sigma_coh     =  0.2847E-07 Ang^2
  Cartesian  position =   2.65147835    2.90053270    1.91000000  Ang
  Fractional position =   0.49297729    0.53300000    0.25000000
Atom  4(Ca):
  Mass     =  0.6656E-25 kg
  bbar     =  0.4760E-04 Ang
  sigma_inc     =  0.4276E-09 Ang^2
  Sigma_coh     =  0.2847E-07 Ang^2
  Cartesian  position =   5.34072835    0.17968553    5.73000000  Ang
  Fractional position =   0.99297729    0.03301890    0.75000000
Atom  5(Ti):
  Mass     =  0.7951E-25 kg
  bbar     = -0.3438E-04 Ang
  sigma_inc     =  0.2865E-07 Ang^2
  Sigma_coh     =  0.1485E-07 Ang^2
  Cartesian  position =   5.34078943    2.90058412    7.64000000  Ang
  Fractional position =   0.99298864    0.53300945    1.00000000
Atom  6(Ti):
  Mass     =  0.7951E-25 kg
  bbar     = -0.3438E-04 Ang
  sigma_inc     =  0.2865E-07 Ang^2
  Sigma_coh     =  0.1485E-07 Ang^2
  Cartesian  position =   2.65153943    0.17963412    0.00000000  Ang
  Fractional position =   0.49298864    0.03300945    0.00000000
Atom  7(Ti):
  Mass     =  0.7951E-25 kg
  bbar     = -0.3438E-04 Ang
  sigma_inc     =  0.2865E-07 Ang^2
  Sigma_coh     =  0.1485E-07 Ang^2
  Cartesian  position =   2.65153943    0.17963412    3.82000000  Ang
  Fractional position =   0.49298864    0.03300945    0.50000000
Atom  8(Ti):
  Mass     =  0.7951E-25 kg
  bbar     = -0.3438E-04 Ang
  sigma_inc     =  0.2865E-07 Ang^2
  Sigma_coh     =  0.1485E-07 Ang^2
  Cartesian  position =   5.34078943    2.90058412    3.82000000  Ang
  Fractional position =   0.99298864    0.53300945    0.50000000
Atom  9(O1):
  Mass     =  0.2657E-25 kg
  bbar     =  0.5803E-04 Ang
  sigma_inc     =  0.2987E-11 Ang^2
  Sigma_coh     =  0.4232E-07 Ang^2
  Cartesian  position =   5.34057170    2.90054581    1.91000000  Ang
  Fractional position =   0.99294816    0.53300241    0.25000000
Atom 10(O1):
  Mass     =  0.2657E-25 kg
  bbar     =  0.5803E-04 Ang
  sigma_inc     =  0.2987E-11 Ang^2
  Sigma_coh     =  0.4232E-07 Ang^2
  Cartesian  position =   2.65132170    0.17967242    5.73000000  Ang
  Fractional position =   0.49294816    0.03301649    0.75000000
Atom 11(O1):
  Mass     =  0.2657E-25 kg
  bbar     =  0.5803E-04 Ang
  sigma_inc     =  0.2987E-11 Ang^2
  Sigma_coh     =  0.4232E-07 Ang^2
  Cartesian  position =   2.65175716    0.17959581    1.91000000  Ang
  Fractional position =   0.49302913    0.03300241    0.25000000
Atom 12(O1):
  Mass     =  0.2657E-25 kg
  bbar     =  0.5803E-04 Ang
  sigma_inc     =  0.2987E-11 Ang^2
  Sigma_coh     =  0.4232E-07 Ang^2
  Cartesian  position =   5.34100716    2.90062242    5.73000000  Ang
  Fractional position =   0.99302913    0.53301649    0.75000000
Atom 13(O2):
  Mass     =  0.2657E-25 kg
  bbar     =  0.5803E-04 Ang
  sigma_inc     =  0.2987E-11 Ang^2
  Sigma_coh     =  0.4232E-07 Ang^2
  Cartesian  position =   3.99629120    1.53998100    7.63980552  Ang
  Fractional position =   0.74301222    0.28298590    0.99997454
Atom 14(O2):
  Mass     =  0.2657E-25 kg
  bbar     =  0.5803E-04 Ang
  sigma_inc     =  0.2987E-11 Ang^2
  Sigma_coh     =  0.4232E-07 Ang^2
  Cartesian  position =   1.30704120    1.54023724    0.00019448  Ang
  Fractional position =   0.24301222    0.28303299    0.00002546
Atom 15(O2):
  Mass     =  0.2657E-25 kg
  bbar     =  0.5803E-04 Ang
  sigma_inc     =  0.2987E-11 Ang^2
  Sigma_coh     =  0.4232E-07 Ang^2
  Cartesian  position =   3.99603765    4.26093100    3.82019448  Ang
  Fractional position =   0.74296507    0.78298590    0.50002546
Atom 16(O2):
  Mass     =  0.2657E-25 kg
  bbar     =  0.5803E-04 Ang
  sigma_inc     =  0.2987E-11 Ang^2
  Sigma_coh     =  0.4232E-07 Ang^2
  Cartesian  position =   1.30678765    4.26118724    3.81980552  Ang
  Fractional position =   0.24296507    0.78303299    0.49997454
Atom 17(O2):
  Mass     =  0.2657E-25 kg
  bbar     =  0.5803E-04 Ang
  sigma_inc     =  0.2987E-11 Ang^2
  Sigma_coh     =  0.4232E-07 Ang^2
  Cartesian  position =   1.30678765    4.26118724    0.00019448  Ang
  Fractional position =   0.24296507    0.78303299    0.00002546
Atom 18(O2):
  Mass     =  0.2657E-25 kg
  bbar     =  0.5803E-04 Ang
  sigma_inc     =  0.2987E-11 Ang^2
  Sigma_coh     =  0.4232E-07 Ang^2
  Cartesian  position =   3.99603765    4.26093100    7.63980552  Ang
  Fractional position =   0.74296507    0.78298590    0.99997454
Atom 19(O2):
  Mass     =  0.2657E-25 kg
  bbar     =  0.5803E-04 Ang
  sigma_inc     =  0.2987E-11 Ang^2
  Sigma_coh     =  0.4232E-07 Ang^2
  Cartesian  position =   1.30704120    1.54023724    3.81980552  Ang
  Fractional position =   0.24301222    0.28303299    0.49997454
Atom 20(O2):
  Mass     =  0.2657E-25 kg
  bbar     =  0.5803E-04 Ang
  sigma_inc     =  0.2987E-11 Ang^2
  Sigma_coh     =  0.4232E-07 Ang^2
  Cartesian  position =   3.99629120    1.53998100    3.82019448  Ang
  Fractional position =   0.74301222    0.28298590    0.50002546
--------------------------------------------------------------------------------
  Start of PDF calculation
--------------------------------------------------------------------------------

  PDF information:

  Maximum radius        =  6.000 Ang
  Number density        =  0.089 Ang(^-3)
  (Sum{c_i bbar_i} )^2  =  0.1403E-08

  Using primitive cell parameters   5.3785   5.4419   7.6400
  Testing primitive vectors with x,y,z=-(n+1) to n, n=    2
[width output suppressed by keyword nowidth]
  PDF statistics:

  Maximum width^2  was  0.2466E-01 Ang^2
  Number of pairs      1480
  Angular frequency range used:
   0.212015E+14 to  0.160263E+15 rad/s 
   0.337432E+01 to  0.255066E+02 THz   

  PDF output being written to example46_CaTio3.pdfs
--------------------------------------------------------------------------------
  End of PDF calculation
--------------------------------------------------------------------------------

--------------------------------------------------------------------------------
  Phonon properties (per mole of unit cells): Temperature =      0.000 K
--------------------------------------------------------------------------------
  Zero point energy            =        1.452452 eV
--------------------------------------------------------------------------------

  Phonon density of states : 

--------------------------------------------------------------------------------
 Frequency (cm-1) Density of States                                             
--------------------------------------------------------------------------------
    0.00000 |                                                              0.000
   13.29387 |                                                              0.000
   26.58775 |                                                              0.000
   39.88162 |                                                              0.000
   53.17550 |                                                              0.000
   66.46937 |                                                              0.000
   79.76324 |                                                              0.000
   93.05712 |                                                              0.000
  106.35099 |************                                                  0.017
  119.64486 |************                                                  0.017
  132.93874 |************************                                      0.033
  146.23261 |************************************************************  0.083
  159.52649 |************************                                      0.033
  172.82036 |************************************************************  0.083
  186.11423 |************                                                  0.017
  199.40811 |************************************                          0.050
  212.70198 |                                                              0.000
  225.99585 |************                                                  0.017
  239.28973 |                                                              0.000
  252.58360 |************************************                          0.050
  265.87748 |                                                              0.000
  279.17135 |************************                                      0.033
  292.46522 |************************                                      0.033
  305.75910 |************                                                  0.017
  319.05297 |************                                                  0.017
  332.34684 |                                                              0.000
  345.64072 |                                                              0.000
  358.93459 |************                                                  0.017
  372.22847 |************                                                  0.017
  385.52234 |************                                                  0.017
  398.81621 |************************************************              0.067
  412.11009 |************                                                  0.017
  425.40396 |                                                              0.000
  438.69783 |************                                                  0.017
  451.99171 |************************                                      0.033
  465.28558 |                                                              0.000
  478.57946 |                                                              0.000
  491.87333 |                                                              0.000
  505.16720 |************                                                  0.017
  518.46108 |************                                                  0.017
  531.75495 |                                                              0.000
  545.04882 |                                                              0.000
  558.34270 |************************                                      0.033
  571.63657 |                                                              0.000
  584.93045 |                                                              0.000
  598.22432 |************************************                          0.050
  611.51819 |************                                                  0.017
  624.81207 |                                                              0.000
  638.10594 |************                                                  0.017
  651.39981 |************************                                      0.033
  664.69369 |                                                              0.000
  677.98756 |                                                              0.000
  691.28144 |                                                              0.000
  704.57531 |************************                                      0.033
  717.86918 |                                                              0.000
  731.16306 |************************                                      0.033
  744.45693 |                                                              0.000
  757.75080 |                                                              0.000
  771.04468 |                                                              0.000
  784.33855 |                                                              0.000
  797.63243 |                                                              0.000
  810.92630 |************                                                  0.017
  824.22017 |************************                                      0.033
  837.51405 |************                                                  0.017
--------------------------------------------------------------------------------



  Time to end of optimisation =       3.6740 seconds


  Peak dynamic memory used =       2.49 MB 


  Timing analysis for GULP :

--------------------------------------------------------------------------------
  Task / Subroutine                                          Time (Seconds)
--------------------------------------------------------------------------------
  Calculation of reciprocal space energy and derivatives          1.0227
  Calculation of real space energy and derivatives                2.3082
  Calculation of phonons                                          0.6183
  Calculation and manipulation of Hessian matrix                  0.0651
  Calculation of matrix inversion                                 0.0085
  Symmetry generation of equivalent positions                     0.0011
  Global summation overhead                                       0.0006
--------------------------------------------------------------------------------
  Total CPU time                                                  3.6740
--------------------------------------------------------------------------------


  Job Finished at 11:50.42  8th July       2020                               

