********************************************************************************
*                       GENERAL UTILITY LATTICE PROGRAM                        *
*                                 Julian Gale                                  *
*                       Curtin Institute for Computation                       *
*                    School of Molecular and Life Sciences                     *
*                    Curtin University, Western Australia                      *
********************************************************************************
* Version = 6.0.0 * Last modified =   7th July 2020                            *
********************************************************************************
*  fit          - perform fitting run                                          *
*  optimise     - perform optimisation run after fitting                       *
*  conp         - constant pressure calculation                                *
*  property     - calculate properties for final geometry                      *
*  phonon       - calculate phonons for final geometry                         *
*  compare      - compare initial and final structures                         *
********************************************************************************

  Job Started  at 15:09.13  8th July       2020                               

  Number of CPUs =     1

  Host name      = M-A0034725                              


  Total number of configurations input =      1

********************************************************************************
*  Input for Configuration =   1                                               *
********************************************************************************

  Formula = MgO                                                         

  Number of irreducible atoms/shells =       3


  Total number atoms/shells =       3

  Dimensionality = 3               :  Bulk   


  Symmetry :

  Crystal family                   :  Cubic       
  Crystal class  (Groth - 1921)    :  Cubic Hexakisoctahedral              

  Space group (centrosymmetric)    :  F M 3 M         

  Patterson group                  :  F m -3 m 

  Cartesian lattice vectors (Angstroms) :

        0.000000    2.106000    2.106000
        2.106000    0.000000    2.106000
        2.106000    2.106000    0.000000

  Primitive cell parameters :            Full cell parameters :

  a =   2.9783    alpha =  60.0000       a =   4.2120    alpha =  90.0000
  b =   2.9783    beta  =  60.0000       b =   4.2120    beta  =  90.0000
  c =   2.9783    gamma =  60.0000       c =   4.2120    gamma =  90.0000

  Initial volumes (Angstroms**3):

  Primitive cell =          18.681214    Full cell =          74.724856

  Temperature of configuration =   0.00     K 

  Pressure of configuration =         0.000 GPa 

  Fractional coordinates of asymmetric unit :

--------------------------------------------------------------------------------
   No.  Atomic       x           y          z         Charge      Occupancy
        Label      (Frac)      (Frac)     (Frac)        (e)         (Frac)  
--------------------------------------------------------------------------------
      1 Mg    c    0.000000    0.000000    0.000000     2.00000    1.000000    
      2 O     c    0.500000    0.500000    0.500000     0.80000    1.000000    
      3 O     bs   0.500000    0.500000    0.500000    -2.80000    1.000000    
--------------------------------------------------------------------------------


  Constraints : 

--------------------------------------------------------------------------------
  Constraint no.      Unconstrained     Constrained    Coefficient    Offset
                         Variable         Variable
--------------------------------------------------------------------------------
           1              Strain 1        Strain 2       1.00000      0.0000
           2              Strain 1        Strain 3       1.00000      0.0000
--------------------------------------------------------------------------------

  Brillouin zone sampling points :

--------------------------------------------------------------------------------
  Point number          x          y          z            Weight
--------------------------------------------------------------------------------
        1           0.000000   0.000000   0.000000     1.00000000
--------------------------------------------------------------------------------


********************************************************************************
*  General input information                                                   *
********************************************************************************

  Species output for all configurations : 

--------------------------------------------------------------------------------
  Species    Type    Atomic    Atomic    Charge       Radii (Angs)     Library
                     Number     Mass       (e)     Cova   Ionic  VDW   Symbol
--------------------------------------------------------------------------------
    Mg       Core       12      24.31   2.000000   1.100  0.000  1.640          
    O        Core        8      16.00   0.800000   0.730  0.000  1.360          
    O        BShell      8       0.00  -2.800000   0.730  1.125  1.360          
--------------------------------------------------------------------------------


  Lattice summation method               =    Ewald          (3-D)
                                         =    Parry          (2-D)
                                         =    Saunders et al (1-D)
  Accuracy factor for lattice sums       =   12.000


  Analytic derivatives to be used

  Time limit = Infinity

  Maximum range for interatomic potentials =    100000.000000 Angstroms

  General interatomic potentials :

--------------------------------------------------------------------------------
Atom  Types   Potential      Parameter       Value         Units   Cutoffs(Ang)
  1     2                                                            Min /  Max 
--------------------------------------------------------------------------------
Mg   c O    s Buckingham    Buckingham A     25.869392    eV        0.000 10.000
                            Buckingham rho  0.30412400    Ang       
                            Buckingham C     0.0000000    eV*Ang^6  
--------------------------------------------------------------------------------
O    c O    s Spring (c-s)  Spring k 2       45.228027    eV*Ang^-2 0.000  0.800
                            Spring k 4       0.0000000    eV*Ang^-4 
--------------------------------------------------------------------------------
O    s O    s BSM           BSM force const  315.37106    eV*Ang^-2 0.000  0.100
                            BSM radius       1.2000000    Ang       
--------------------------------------------------------------------------------
O    s O    s Buckingham    Buckingham A     0.0000000    eV        0.000 10.000
                            Buckingham rho  0.30000000    Ang       
                            Buckingham C     36.000000    eV*Ang^6  
--------------------------------------------------------------------------------


  Number of variables   =    3
  Number of observables =    7

--------------------------------------------------------------------------------
   Observable no.  Type           Observable    Weight       Reference  Confign 
--------------------------------------------------------------------------------
          1        Elastic Const   298.000000        0.0100    1  1        1
          2        Elastic Const    95.000000        0.0100    1  2        1
          3        Elastic Const   152.000000        0.0100    4  4        1
          4        Static Di C       9.860000        1.0000    1  1        1
          5        High Freq DiC     2.960000        1.0000    1  1        1
          6        Derivative        0.000000        1.0000    3 r         1
          7        Derivative        0.000000        1.0000    a           1
--------------------------------------------------------------------------------

  Variables :

--------------------------------------------------------------------------------
     Parameter No.       Parameter Value          Parameter Type  Species
--------------------------------------------------------------------------------
             1                 25.869392          Buckingham A   
             2                 45.228027          Spring k 2     
             3                315.371060          BSM force const
--------------------------------------------------------------------------------

  Symmetry constraints used for fitting
  First derivatives of residuals to be used in fitting

  Maximum no. of cycles   =       5000
  Maximum step size       =  1000.0000
  Tolerance on parameters =  0.0000100
  Tolerance on function   =  0.0000100
  Tolerance on gradient   =  0.0001000
  Differencing interval   =  0.0001000

  Start of fitting :

  Cycle:      0  Sum sqs:     236.530457  Gnorm:   4073.287958  CPU:    0.013
  ** Hessian calculated **
  Cycle:      1  Sum sqs:      16.022207  Gnorm:    272.751345  CPU:    0.025
  Cycle:      2  Sum sqs:       2.699450  Gnorm:    130.227959  CPU:    0.034
  Cycle:      3  Sum sqs:       2.112935  Gnorm:      3.384739  CPU:    0.043
  Cycle:      4  Sum sqs:       1.599788  Gnorm:     44.712756  CPU:    0.052
  Cycle:      5  Sum sqs:       1.193012  Gnorm:     49.321533  CPU:    0.062
  Cycle:      6  Sum sqs:       0.746543  Gnorm:      1.645042  CPU:    0.071
  Cycle:      7  Sum sqs:       0.746188  Gnorm:      0.634720  CPU:    0.080
  Cycle:      8  Sum sqs:       0.746168  Gnorm:      0.002566  CPU:    0.089


  **** Fit completed successfully ****


  Final sum of squares =             0.746168

  Final gradient norm  =             0.002566

  Final values of parameters :

--------------------------------------------------------------------------------
 Parameter No.    Parameter        Parameter      Parameter Type  Species
                  Original         Final                                 
--------------------------------------------------------------------------------
         1             25.869392        29.894536 Buckingham A   
         2             45.228027        44.966400 Spring k 2     
         3            315.371060       313.490569 BSM force const
--------------------------------------------------------------------------------


  Final values of numerical parameter gradients :

--------------------------------------------------------------------------------
     Parameter No.       Parameter Gradient      Parameter Type  Species
--------------------------------------------------------------------------------
             1                  0.002464          Buckingham A   
             2                  0.000148          Spring k 2     
             3                 -0.000699          BSM force const
--------------------------------------------------------------------------------


  Final values of residuals :

--------------------------------------------------------------------------------
   Observable no.  Type            Observable   Calculated    Residual  Error(%)
--------------------------------------------------------------------------------
          1        Elastic Const    298.00000    298.72825      0.00530    0.244
          2        Elastic Const     95.00000     94.68998      0.00096   -0.326
          3        Elastic Const    152.00000    160.54127      0.72953    5.619
          4        Static Di C        9.86000      9.82319      0.00136   -0.373
          5        High Freq DiC      2.96000      2.99347      0.00112    1.131
          6        Derivative         0.00000      0.00940      0.00009
          7        Derivative         0.00000     -0.08836      0.00781
--------------------------------------------------------------------------------

  Comparison of initial and final observables :

--------------------------------------------------------------------------------
   Observable no.  Type            Observable   Initial       Final             
--------------------------------------------------------------------------------
          1        Elastic Const    298.00000    200.84766    298.72825
          2        Elastic Const     95.00000    108.89805     94.68998
          3        Elastic Const    152.00000    178.54417    160.54127
          4        Static Di C        9.86000     18.68388      9.82319
          5        High Freq DiC      2.96000      3.11692      2.99347
          6        Derivative         0.00000     -3.31038      0.00940
          7        Derivative         0.00000      6.65690     -0.08836
--------------------------------------------------------------------------------

  Maximum range for interatomic potentials =    100000.000000 Angstroms

  General interatomic potentials :

--------------------------------------------------------------------------------
Atom  Types   Potential      Parameter       Value         Units   Cutoffs(Ang)
  1     2                                                            Min /  Max 
--------------------------------------------------------------------------------
Mg   c O    s Buckingham    Buckingham A     29.894536    eV        0.000 10.000
                            Buckingham rho  0.30412400    Ang       
                            Buckingham C     0.0000000    eV*Ang^6  
--------------------------------------------------------------------------------
O    c O    s Spring (c-s)  Spring k 2       44.966400    eV*Ang^-2 0.000  0.800
                            Spring k 4       0.0000000    eV*Ang^-4 
--------------------------------------------------------------------------------
O    s O    s BSM           BSM force const  313.49057    eV*Ang^-2 0.000  0.100
                            BSM radius       1.2000000    Ang       
--------------------------------------------------------------------------------
O    s O    s Buckingham    Buckingham A     0.0000000    eV        0.000 10.000
                            Buckingham rho  0.30000000    Ang       
                            Buckingham C     36.000000    eV*Ang^6  
--------------------------------------------------------------------------------



  Total time to end of fitting =       0.0896 seconds

********************************************************************************
*  Output for configuration   1                                                *
********************************************************************************


  Components of energy : 

--------------------------------------------------------------------------------
  Interatomic potentials     =           7.70435737 eV    
  Monopole - monopole (real) =          -4.34238722 eV    
  Monopole - monopole (recip)=         -43.45344934 eV    
  Monopole - monopole (total)=         -47.79583656 eV    
--------------------------------------------------------------------------------
  Total lattice energy : 
    Primitive unit cell      =         -40.09147919 eV    
    Non-primitive unit cell  =        -160.36591676 eV    
--------------------------------------------------------------------------------
  Total lattice energy (in kJmol-1): 
    Primitive unit cell      =           -3868.2149 kJ/(mole unit cells)
    Non-primitive unit cell  =          -15472.8596 kJ/(mole unit cells)
--------------------------------------------------------------------------------


  Number of variables =        2

  Maximum number of calculations  =          1000
  Maximum Hessian update interval =            10
  Maximum step size               =   1.000000000
  Maximum parameter tolerance     =   0.000010000
  Maximum function  tolerance     =   0.000010000
  Maximum gradient  tolerance     =   0.001000000
  Maximum gradient  component     =   0.010000000

  Symmetry constrained optimisation

  Symmetry used for second derivatives

  Cell parameters to be optimised using strains

  Newton-Raphson optimiser to be used

  BFGS hessian update to be used

  Lower half triangular hessian to be used

  Start of bulk optimisation :

  Cycle:      0 Energy:       -40.091479  Gnorm:      0.044428  CPU:    0.091
  ** Hessian calculated **
  Cycle:      1 Energy:       -40.091500  Gnorm:      0.000069  CPU:    0.092


  **** Optimisation achieved ****


  Final energy =     -40.09150017 eV
  Final Gnorm  =       0.00000002

  Components of energy : 

--------------------------------------------------------------------------------
  Interatomic potentials     =           7.68070062 eV    
  Monopole - monopole (real) =          -4.34023985 eV    
  Monopole - monopole (recip)=         -43.43196094 eV    
  Monopole - monopole (total)=         -47.77220079 eV    
--------------------------------------------------------------------------------
  Total lattice energy : 
    Primitive unit cell      =         -40.09150017 eV    
    Non-primitive unit cell  =        -160.36600069 eV    
--------------------------------------------------------------------------------
  Total lattice energy (in kJmol-1): 
    Primitive unit cell      =           -3868.2169 kJ/(mole unit cells)
    Non-primitive unit cell  =          -15472.8676 kJ/(mole unit cells)
--------------------------------------------------------------------------------

  Final asymmetric unit coordinates :

--------------------------------------------------------------------------------
   No.  Atomic        x           y           z         Radius
        Label       (Frac)      (Frac)      (Frac)       (Angs) 
--------------------------------------------------------------------------------
     1  Mg    c     0.000000    0.000000    0.000000    0.000000
     2  O     c     0.500000    0.500000    0.500000    0.000000
     3  O     bs    0.500000    0.500000    0.500000    1.124864
--------------------------------------------------------------------------------

  Final Cartesian lattice vectors (Angstroms) :

        0.000000    2.107042    2.107042
        2.107042    0.000000    2.107042
        2.107042    2.107042    0.000000


  Final cell parameters and derivatives :

--------------------------------------------------------------------------------
       a            2.979807 Angstrom     dE/de1(xx)     0.000000 eV/strain
       b            2.979807 Angstrom     dE/de2(yy)     0.000000 eV/strain
       c            2.979807 Angstrom     dE/de3(zz)     0.000000 eV/strain
       alpha       60.000000 Degrees      dE/de4(yz)     0.000000 eV/strain
       beta        60.000000 Degrees      dE/de5(xz)     0.000000 eV/strain
       gamma       60.000000 Degrees      dE/de6(xy)     0.000000 eV/strain
--------------------------------------------------------------------------------

  Primitive cell volume =            18.708956 Angs**3

  Density of cell =      3.577826 g/cm**3

  Non-primitive lattice parameters :

  a    =     4.214084  b   =     4.214084  c    =     4.214084
  alpha=    90.000000  beta=    90.000000  gamma=    90.000000

  Non-primitive cell volume =            74.835824 Angs**3


  Final internal derivatives :

--------------------------------------------------------------------------------
   No.  Atomic          a             b             c           Radius
        Label          (eV)          (eV)          (eV)        (eV/Angs)
--------------------------------------------------------------------------------
      1 Mg    c       0.000000      0.000000      0.000000      0.000000
      2 O     c       0.000000      0.000000      0.000000      0.000000
      3 O     bs      0.000000      0.000000      0.000000     -0.000000
--------------------------------------------------------------------------------
  Maximum abs         0.000000      0.000000      0.000000      0.000000
--------------------------------------------------------------------------------

  Comparison of initial and final structures : 

--------------------------------------------------------------------------------
  Parameter   Initial value   Final value   Difference    Units      Percent
--------------------------------------------------------------------------------
    Volume        74.724856     74.835824     0.110968    Angs**3      0.15
    a              4.212000      4.214084     0.002084    Angstroms    0.05
    b              4.212000      4.214084     0.002084    Angstroms    0.05
    c              4.212000      4.214084     0.002084    Angstroms    0.05
    alpha         90.000000     90.000000     0.000000    Degrees      0.00
    beta          90.000000     90.000000     0.000000    Degrees      0.00
    gamma         90.000000     90.000000     0.000000    Degrees      0.00
      1 x          0.000000      0.000000     0.000000    Fractional   0.00
      1 y          0.000000      0.000000     0.000000    Fractional   0.00
      1 z          0.000000      0.000000     0.000000    Fractional   0.00
      2 x          0.500000      0.500000     0.000000    Fractional   0.00
      2 y          0.500000      0.500000     0.000000    Fractional   0.00
      2 z          0.500000      0.500000     0.000000    Fractional   0.00
      3 x          0.500000      0.500000     0.000000    Fractional   0.00
      3 y          0.500000      0.500000     0.000000    Fractional   0.00
      3 z          0.500000      0.500000     0.000000    Fractional   0.00
--------------------------------------------------------------------------------


  Born effective charge tensors : 

-------------------------------------------------------------------------------
  Atom             x           y             z
-------------------------------------------------------------------------------
    1 Mg    x       1.9751      0.0000     -0.0000
            y       0.0000      1.9751     -0.0000
            z      -0.0000     -0.0000      1.9751
-------------------------------------------------------------------------------
    2 O     x      -1.9751     -0.0000      0.0000
            y      -0.0000     -1.9751      0.0000
            z       0.0000      0.0000     -1.9751
-------------------------------------------------------------------------------




  Elastic Constant Matrix: (Units=GPa)

-------------------------------------------------------------------------------
  Indices      1         2         3         4         5         6    
-------------------------------------------------------------------------------
       1    297.3423   94.7364   94.7364   -0.0000   -0.0000   -0.0000
       2     94.7364  297.3423   94.7364   -0.0000   -0.0000   -0.0000
       3     94.7364   94.7364  297.3423    0.0000   -0.0000    0.0000
       4     -0.0000   -0.0000    0.0000  160.4673    0.0000   -0.0000
       5     -0.0000   -0.0000   -0.0000    0.0000  160.4673   -0.0000
       6     -0.0000   -0.0000    0.0000   -0.0000   -0.0000  160.4673
-------------------------------------------------------------------------------


  Elastic Compliance Matrix: (Units=1/GPa)

-------------------------------------------------------------------------------
  Indices      1         2         3         4         5         6    
-------------------------------------------------------------------------------
       1    0.003975 -0.000961 -0.000961  0.000000  0.000000  0.000000
       2   -0.000961  0.003975 -0.000961 -0.000000 -0.000000  0.000000
       3   -0.000961 -0.000961  0.003975 -0.000000  0.000000 -0.000000
       4    0.000000 -0.000000 -0.000000  0.006232 -0.000000  0.000000
       5    0.000000 -0.000000  0.000000 -0.000000  0.006232  0.000000
       6    0.000000  0.000000 -0.000000  0.000000  0.000000  0.006232
-------------------------------------------------------------------------------

  Mechanical properties :

-------------------------------------------------------------------------------
  Convention :                    Reuss         Voigt         Hill
-------------------------------------------------------------------------------
  Bulk  Modulus (GPa)     =     162.27173     162.27173     162.27173
  Shear Modulus (GPa)     =     130.07909     136.80159     133.44034
-------------------------------------------------------------------------------
  Velocity S-wave (km/s)  =       6.02968       6.18352       6.10708
  Velocity P-wave (km/s)  =       9.68663       9.81510       9.75108
-------------------------------------------------------------------------------
  Compressibility (1/GPa) =    0.00616250
-------------------------------------------------------------------------------
  Stress axis :                     x             y             z
-------------------------------------------------------------------------------
  Youngs Moduli (GPa)     =     251.56077     251.56077     251.56077
-------------------------------------------------------------------------------
  Poissons Ratio (x)      =                     0.24163       0.24163
  Poissons Ratio (y)      =       0.24163                     0.24163
  Poissons Ratio (z)      =       0.24163       0.24163
-------------------------------------------------------------------------------


  Piezoelectric Strain Matrix: (Units=C/m**2)

-------------------------------------------------------------------------------
  Indices      1         2         3         4         5         6    
-------------------------------------------------------------------------------
       x     0.00000   0.00000   0.00000  -0.00000   0.00000   0.00000
       y     0.00000  -0.00000   0.00000   0.00000  -0.00000   0.00000
       z     0.00000   0.00000  -0.00000   0.00000   0.00000  -0.00000
-------------------------------------------------------------------------------


  Piezoelectric Stress Matrix: (Units=10**-11 C/N)

-------------------------------------------------------------------------------
  Indices      1         2         3         4         5         6    
-------------------------------------------------------------------------------
       x    -0.00000   0.00000   0.00000  -0.00000   0.00000   0.00000
       y     0.00000  -0.00000   0.00000   0.00000  -0.00000   0.00000
       z     0.00000   0.00000  -0.00000   0.00000   0.00000  -0.00000
-------------------------------------------------------------------------------


  Static dielectric constant tensor : 

-------------------------------------------------------------------------------
              x         y         z
-------------------------------------------------------------------------------
       x     9.85817   0.00000  -0.00000
       y     0.00000   9.85817  -0.00000
       z    -0.00000  -0.00000   9.85817
--------------------------------------------------------------------------------

  High frequency dielectric constant tensor : 

-------------------------------------------------------------------------------
              x         y         z
-------------------------------------------------------------------------------
       x     2.99110   0.00000   0.00000
       y     0.00000   2.99110  -0.00000
       z     0.00000  -0.00000   2.99110
-------------------------------------------------------------------------------

  Static refractive indices : 

-------------------------------------------------------------------------------
    1 =    3.13977      2 =    3.13977      3 =    3.13977
-------------------------------------------------------------------------------

  High frequency refractive indices : 

-------------------------------------------------------------------------------
    1 =    1.72948      2 =    1.72948      3 =    1.72948
-------------------------------------------------------------------------------


  Phonon Calculation : 

  Number of k points for this configuration =        1

--------------------------------------------------------------------------------
  K point      1 =   0.000000  0.000000  0.000000  Weight =    1.000
--------------------------------------------------------------------------------

  Frequencies (cm-1) [NB: Negative implies an imaginary mode]:

    0.00    0.00    0.00  393.50  393.50  393.50


--------------------------------------------------------------------------------
  Phonon properties (per mole of unit cells): Temperature =      0.000 K
--------------------------------------------------------------------------------
  Zero point energy            =        0.073181 eV
--------------------------------------------------------------------------------

  Time to end of optimisation =       0.0940 seconds


  Peak dynamic memory used =       1.82 MB 


  Timing analysis for GULP :

--------------------------------------------------------------------------------
  Task / Subroutine                                          Time (Seconds)
--------------------------------------------------------------------------------
  Calculation of reciprocal space energy and derivatives          0.0036
  Calculation of reciprocal space energy using symmetry           0.0014
  Calculation of real space energy and derivatives                0.0289
  Calculation of real space energy using symmetry                 0.0259
  Calculation of phonons                                          0.0003
  Calculation of matrix inversion                                 0.0002
  Sum of squares for fitting                                      0.0241
  Symmetry generation of equivalent positions                     0.0239
  Global summation overhead                                       0.0001
--------------------------------------------------------------------------------
  Total CPU time                                                  0.0940
--------------------------------------------------------------------------------


  Dump file written as example9.grs


  Job Finished at 15:09.13  8th July       2020                               

