********************************************************************************
*                       GENERAL UTILITY LATTICE PROGRAM                        *
*                                 Julian Gale                                  *
*                       Curtin Institute for Computation                       *
*                    School of Molecular and Life Sciences                     *
*                    Curtin University, Western Australia                      *
********************************************************************************
* Version = 6.0.0 * Last modified =   7th July 2020                            *
********************************************************************************
*  optimise     - perform optimisation run                                     *
*  conp         - constant pressure calculation                                *
*  c6           - use real and reciprocal space sum for C6 terms               *
*  phonon       - calculate phonons for final geometry                         *
*  eigenvectors - output phonon eigenvectors                                   *
*  nosymmetry   - turn off symmetry after initial structure generation         *
*  full         - generate full unit cell when symmetry is removed             *
*  nofrequency  - suppress frequency output after phonon calculation           *
*  noksymmetry  - do not use Brillouin zone symmetry when generating k points  *
*  makeEigenArrays - store all eigenvectors and frequencies after calculation  *
*  PDF          - calculate Pair Distribution Functions                        *
*  PDFcut       - use frequency cut-offs in PDF as set in neutron block        *
********************************************************************************
* MgO potentials from P.S.Baram and S.C.Parker Phil Mag B 73 1 49 (1996)       *
* Generate PDFs for MgO using only phonons contributions < wmax                *
* PDF code written by Elizabeth Cope (ers29@cam.ac.uk)                         *
*                                                                              *
* [Phonon information suppressed                                               *
* (remove nofrew to output standard information, add arryfreq to output from s *
********************************************************************************


  Job Started  at 11:50.31  8th July       2020                               

  Number of CPUs =     1

  Host name      = M-A0034725                              


  Total number of configurations input =      1

********************************************************************************
*  Input for Configuration =   1                                               *
********************************************************************************

  Formula = Mg4O4                                                       

  Number of irreducible atoms/shells =      12


  Total number atoms/shells =      12

  Dimensionality = 3               :  Bulk   



  Cartesian lattice vectors (Angstroms) :

        4.200000    0.000000    0.000000
        0.000000    4.200000    0.000000
        0.000000    0.000000    4.200000

  Cell parameters (Angstroms/Degrees):

  a =       4.2000    alpha =  90.0000
  b =       4.2000    beta  =  90.0000
  c =       4.2000    gamma =  90.0000

  Initial cell volume =          74.088000 Angs**3

  Shrinking factors =     10    10    10

  Temperature of configuration =   290.     K 

  Pressure of configuration =         0.000 GPa 

  Fractional coordinates of asymmetric unit :

--------------------------------------------------------------------------------
   No.  Atomic       x           y          z         Charge      Occupancy
        Label      (Frac)      (Frac)     (Frac)        (e)         (Frac)  
--------------------------------------------------------------------------------
      1 Mg    c    0.000000    0.000000    0.000000     2.00000    1.000000    
      2 Mg    c    0.000000 *  0.500000 *  0.500000 *   2.00000    1.000000    
      3 Mg    c    0.500000 *  0.000000 *  0.500000 *   2.00000    1.000000    
      4 Mg    c    0.500000 *  0.500000 *  0.000000 *   2.00000    1.000000    
      5 O     c    0.500000 *  0.500000 *  0.500000 *   0.84819    1.000000    
      6 O     c    0.500000 *  0.000000 *  0.000000 *   0.84819    1.000000    
      7 O     c    0.000000 *  0.500000 *  0.000000 *   0.84819    1.000000    
      8 O     c    0.000000 *  0.000000 *  0.500000 *   0.84819    1.000000    
      9 O     s    0.500000 *  0.500000 *  0.500000 *  -2.84819    1.000000    
     10 O     s    0.500000 *  0.000000 *  0.000000 *  -2.84819    1.000000    
     11 O     s    0.000000 *  0.500000 *  0.000000 *  -2.84819    1.000000    
     12 O     s    0.000000 *  0.000000 *  0.500000 *  -2.84819    1.000000    
--------------------------------------------------------------------------------


  PDF uses Gamma centred Brillouin zone with no symmetry reduction

  Brillouin zone sampling points :

--------------------------------------------------------------------------------
  Point number          x          y          z            Weight
--------------------------------------------------------------------------------
        1          -0.450000  -0.450000  -0.450000     0.00100000
        2          -0.450000  -0.450000  -0.350000     0.00100000
        3          -0.450000  -0.450000  -0.250000     0.00100000
        4          -0.450000  -0.450000  -0.150000     0.00100000
        5          -0.450000  -0.450000  -0.050000     0.00100000
        6          -0.450000  -0.450000   0.050000     0.00100000
        7          -0.450000  -0.450000   0.150000     0.00100000
        8          -0.450000  -0.450000   0.250000     0.00100000
        9          -0.450000  -0.450000   0.350000     0.00100000
       10          -0.450000  -0.450000   0.450000     0.00100000
       11          -0.450000  -0.350000  -0.450000     0.00100000
       12          -0.450000  -0.350000  -0.350000     0.00100000
       13          -0.450000  -0.350000  -0.250000     0.00100000
       14          -0.450000  -0.350000  -0.150000     0.00100000
       15          -0.450000  -0.350000  -0.050000     0.00100000
       16          -0.450000  -0.350000   0.050000     0.00100000
       17          -0.450000  -0.350000   0.150000     0.00100000
       18          -0.450000  -0.350000   0.250000     0.00100000
       19          -0.450000  -0.350000   0.350000     0.00100000
       20          -0.450000  -0.350000   0.450000     0.00100000
       21          -0.450000  -0.250000  -0.450000     0.00100000
       22          -0.450000  -0.250000  -0.350000     0.00100000
       23          -0.450000  -0.250000  -0.250000     0.00100000
       24          -0.450000  -0.250000  -0.150000     0.00100000
       25          -0.450000  -0.250000  -0.050000     0.00100000
       26          -0.450000  -0.250000   0.050000     0.00100000
       27          -0.450000  -0.250000   0.150000     0.00100000
       28          -0.450000  -0.250000   0.250000     0.00100000
       29          -0.450000  -0.250000   0.350000     0.00100000
       30          -0.450000  -0.250000   0.450000     0.00100000
       31          -0.450000  -0.150000  -0.450000     0.00100000
       32          -0.450000  -0.150000  -0.350000     0.00100000
       33          -0.450000  -0.150000  -0.250000     0.00100000
       34          -0.450000  -0.150000  -0.150000     0.00100000
       35          -0.450000  -0.150000  -0.050000     0.00100000
       36          -0.450000  -0.150000   0.050000     0.00100000
       37          -0.450000  -0.150000   0.150000     0.00100000
       38          -0.450000  -0.150000   0.250000     0.00100000
       39          -0.450000  -0.150000   0.350000     0.00100000
       40          -0.450000  -0.150000   0.450000     0.00100000
       41          -0.450000  -0.050000  -0.450000     0.00100000
       42          -0.450000  -0.050000  -0.350000     0.00100000
       43          -0.450000  -0.050000  -0.250000     0.00100000
       44          -0.450000  -0.050000  -0.150000     0.00100000
       45          -0.450000  -0.050000  -0.050000     0.00100000
       46          -0.450000  -0.050000   0.050000     0.00100000
       47          -0.450000  -0.050000   0.150000     0.00100000
       48          -0.450000  -0.050000   0.250000     0.00100000
       49          -0.450000  -0.050000   0.350000     0.00100000
       50          -0.450000  -0.050000   0.450000     0.00100000
       51          -0.450000   0.050000  -0.450000     0.00100000
       52          -0.450000   0.050000  -0.350000     0.00100000
       53          -0.450000   0.050000  -0.250000     0.00100000
       54          -0.450000   0.050000  -0.150000     0.00100000
       55          -0.450000   0.050000  -0.050000     0.00100000
       56          -0.450000   0.050000   0.050000     0.00100000
       57          -0.450000   0.050000   0.150000     0.00100000
       58          -0.450000   0.050000   0.250000     0.00100000
       59          -0.450000   0.050000   0.350000     0.00100000
       60          -0.450000   0.050000   0.450000     0.00100000
       61          -0.450000   0.150000  -0.450000     0.00100000
       62          -0.450000   0.150000  -0.350000     0.00100000
       63          -0.450000   0.150000  -0.250000     0.00100000
       64          -0.450000   0.150000  -0.150000     0.00100000
       65          -0.450000   0.150000  -0.050000     0.00100000
       66          -0.450000   0.150000   0.050000     0.00100000
       67          -0.450000   0.150000   0.150000     0.00100000
       68          -0.450000   0.150000   0.250000     0.00100000
       69          -0.450000   0.150000   0.350000     0.00100000
       70          -0.450000   0.150000   0.450000     0.00100000
       71          -0.450000   0.250000  -0.450000     0.00100000
       72          -0.450000   0.250000  -0.350000     0.00100000
       73          -0.450000   0.250000  -0.250000     0.00100000
       74          -0.450000   0.250000  -0.150000     0.00100000
       75          -0.450000   0.250000  -0.050000     0.00100000
       76          -0.450000   0.250000   0.050000     0.00100000
       77          -0.450000   0.250000   0.150000     0.00100000
       78          -0.450000   0.250000   0.250000     0.00100000
       79          -0.450000   0.250000   0.350000     0.00100000
       80          -0.450000   0.250000   0.450000     0.00100000
       81          -0.450000   0.350000  -0.450000     0.00100000
       82          -0.450000   0.350000  -0.350000     0.00100000
       83          -0.450000   0.350000  -0.250000     0.00100000
       84          -0.450000   0.350000  -0.150000     0.00100000
       85          -0.450000   0.350000  -0.050000     0.00100000
       86          -0.450000   0.350000   0.050000     0.00100000
       87          -0.450000   0.350000   0.150000     0.00100000
       88          -0.450000   0.350000   0.250000     0.00100000
       89          -0.450000   0.350000   0.350000     0.00100000
       90          -0.450000   0.350000   0.450000     0.00100000
       91          -0.450000   0.450000  -0.450000     0.00100000
       92          -0.450000   0.450000  -0.350000     0.00100000
       93          -0.450000   0.450000  -0.250000     0.00100000
       94          -0.450000   0.450000  -0.150000     0.00100000
       95          -0.450000   0.450000  -0.050000     0.00100000
       96          -0.450000   0.450000   0.050000     0.00100000
       97          -0.450000   0.450000   0.150000     0.00100000
       98          -0.450000   0.450000   0.250000     0.00100000
       99          -0.450000   0.450000   0.350000     0.00100000
      100          -0.450000   0.450000   0.450000     0.00100000
      101          -0.350000  -0.450000  -0.450000     0.00100000
      102          -0.350000  -0.450000  -0.350000     0.00100000
      103          -0.350000  -0.450000  -0.250000     0.00100000
      104          -0.350000  -0.450000  -0.150000     0.00100000
      105          -0.350000  -0.450000  -0.050000     0.00100000
      106          -0.350000  -0.450000   0.050000     0.00100000
      107          -0.350000  -0.450000   0.150000     0.00100000
      108          -0.350000  -0.450000   0.250000     0.00100000
      109          -0.350000  -0.450000   0.350000     0.00100000
      110          -0.350000  -0.450000   0.450000     0.00100000
      111          -0.350000  -0.350000  -0.450000     0.00100000
      112          -0.350000  -0.350000  -0.350000     0.00100000
      113          -0.350000  -0.350000  -0.250000     0.00100000
      114          -0.350000  -0.350000  -0.150000     0.00100000
      115          -0.350000  -0.350000  -0.050000     0.00100000
      116          -0.350000  -0.350000   0.050000     0.00100000
      117          -0.350000  -0.350000   0.150000     0.00100000
      118          -0.350000  -0.350000   0.250000     0.00100000
      119          -0.350000  -0.350000   0.350000     0.00100000
      120          -0.350000  -0.350000   0.450000     0.00100000
      121          -0.350000  -0.250000  -0.450000     0.00100000
      122          -0.350000  -0.250000  -0.350000     0.00100000
      123          -0.350000  -0.250000  -0.250000     0.00100000
      124          -0.350000  -0.250000  -0.150000     0.00100000
      125          -0.350000  -0.250000  -0.050000     0.00100000
      126          -0.350000  -0.250000   0.050000     0.00100000
      127          -0.350000  -0.250000   0.150000     0.00100000
      128          -0.350000  -0.250000   0.250000     0.00100000
      129          -0.350000  -0.250000   0.350000     0.00100000
      130          -0.350000  -0.250000   0.450000     0.00100000
      131          -0.350000  -0.150000  -0.450000     0.00100000
      132          -0.350000  -0.150000  -0.350000     0.00100000
      133          -0.350000  -0.150000  -0.250000     0.00100000
      134          -0.350000  -0.150000  -0.150000     0.00100000
      135          -0.350000  -0.150000  -0.050000     0.00100000
      136          -0.350000  -0.150000   0.050000     0.00100000
      137          -0.350000  -0.150000   0.150000     0.00100000
      138          -0.350000  -0.150000   0.250000     0.00100000
      139          -0.350000  -0.150000   0.350000     0.00100000
      140          -0.350000  -0.150000   0.450000     0.00100000
      141          -0.350000  -0.050000  -0.450000     0.00100000
      142          -0.350000  -0.050000  -0.350000     0.00100000
      143          -0.350000  -0.050000  -0.250000     0.00100000
      144          -0.350000  -0.050000  -0.150000     0.00100000
      145          -0.350000  -0.050000  -0.050000     0.00100000
      146          -0.350000  -0.050000   0.050000     0.00100000
      147          -0.350000  -0.050000   0.150000     0.00100000
      148          -0.350000  -0.050000   0.250000     0.00100000
      149          -0.350000  -0.050000   0.350000     0.00100000
      150          -0.350000  -0.050000   0.450000     0.00100000
      151          -0.350000   0.050000  -0.450000     0.00100000
      152          -0.350000   0.050000  -0.350000     0.00100000
      153          -0.350000   0.050000  -0.250000     0.00100000
      154          -0.350000   0.050000  -0.150000     0.00100000
      155          -0.350000   0.050000  -0.050000     0.00100000
      156          -0.350000   0.050000   0.050000     0.00100000
      157          -0.350000   0.050000   0.150000     0.00100000
      158          -0.350000   0.050000   0.250000     0.00100000
      159          -0.350000   0.050000   0.350000     0.00100000
      160          -0.350000   0.050000   0.450000     0.00100000
      161          -0.350000   0.150000  -0.450000     0.00100000
      162          -0.350000   0.150000  -0.350000     0.00100000
      163          -0.350000   0.150000  -0.250000     0.00100000
      164          -0.350000   0.150000  -0.150000     0.00100000
      165          -0.350000   0.150000  -0.050000     0.00100000
      166          -0.350000   0.150000   0.050000     0.00100000
      167          -0.350000   0.150000   0.150000     0.00100000
      168          -0.350000   0.150000   0.250000     0.00100000
      169          -0.350000   0.150000   0.350000     0.00100000
      170          -0.350000   0.150000   0.450000     0.00100000
      171          -0.350000   0.250000  -0.450000     0.00100000
      172          -0.350000   0.250000  -0.350000     0.00100000
      173          -0.350000   0.250000  -0.250000     0.00100000
      174          -0.350000   0.250000  -0.150000     0.00100000
      175          -0.350000   0.250000  -0.050000     0.00100000
      176          -0.350000   0.250000   0.050000     0.00100000
      177          -0.350000   0.250000   0.150000     0.00100000
      178          -0.350000   0.250000   0.250000     0.00100000
      179          -0.350000   0.250000   0.350000     0.00100000
      180          -0.350000   0.250000   0.450000     0.00100000
      181          -0.350000   0.350000  -0.450000     0.00100000
      182          -0.350000   0.350000  -0.350000     0.00100000
      183          -0.350000   0.350000  -0.250000     0.00100000
      184          -0.350000   0.350000  -0.150000     0.00100000
      185          -0.350000   0.350000  -0.050000     0.00100000
      186          -0.350000   0.350000   0.050000     0.00100000
      187          -0.350000   0.350000   0.150000     0.00100000
      188          -0.350000   0.350000   0.250000     0.00100000
      189          -0.350000   0.350000   0.350000     0.00100000
      190          -0.350000   0.350000   0.450000     0.00100000
      191          -0.350000   0.450000  -0.450000     0.00100000
      192          -0.350000   0.450000  -0.350000     0.00100000
      193          -0.350000   0.450000  -0.250000     0.00100000
      194          -0.350000   0.450000  -0.150000     0.00100000
      195          -0.350000   0.450000  -0.050000     0.00100000
      196          -0.350000   0.450000   0.050000     0.00100000
      197          -0.350000   0.450000   0.150000     0.00100000
      198          -0.350000   0.450000   0.250000     0.00100000
      199          -0.350000   0.450000   0.350000     0.00100000
      200          -0.350000   0.450000   0.450000     0.00100000
      201          -0.250000  -0.450000  -0.450000     0.00100000
      202          -0.250000  -0.450000  -0.350000     0.00100000
      203          -0.250000  -0.450000  -0.250000     0.00100000
      204          -0.250000  -0.450000  -0.150000     0.00100000
      205          -0.250000  -0.450000  -0.050000     0.00100000
      206          -0.250000  -0.450000   0.050000     0.00100000
      207          -0.250000  -0.450000   0.150000     0.00100000
      208          -0.250000  -0.450000   0.250000     0.00100000
      209          -0.250000  -0.450000   0.350000     0.00100000
      210          -0.250000  -0.450000   0.450000     0.00100000
      211          -0.250000  -0.350000  -0.450000     0.00100000
      212          -0.250000  -0.350000  -0.350000     0.00100000
      213          -0.250000  -0.350000  -0.250000     0.00100000
      214          -0.250000  -0.350000  -0.150000     0.00100000
      215          -0.250000  -0.350000  -0.050000     0.00100000
      216          -0.250000  -0.350000   0.050000     0.00100000
      217          -0.250000  -0.350000   0.150000     0.00100000
      218          -0.250000  -0.350000   0.250000     0.00100000
      219          -0.250000  -0.350000   0.350000     0.00100000
      220          -0.250000  -0.350000   0.450000     0.00100000
      221          -0.250000  -0.250000  -0.450000     0.00100000
      222          -0.250000  -0.250000  -0.350000     0.00100000
      223          -0.250000  -0.250000  -0.250000     0.00100000
      224          -0.250000  -0.250000  -0.150000     0.00100000
      225          -0.250000  -0.250000  -0.050000     0.00100000
      226          -0.250000  -0.250000   0.050000     0.00100000
      227          -0.250000  -0.250000   0.150000     0.00100000
      228          -0.250000  -0.250000   0.250000     0.00100000
      229          -0.250000  -0.250000   0.350000     0.00100000
      230          -0.250000  -0.250000   0.450000     0.00100000
      231          -0.250000  -0.150000  -0.450000     0.00100000
      232          -0.250000  -0.150000  -0.350000     0.00100000
      233          -0.250000  -0.150000  -0.250000     0.00100000
      234          -0.250000  -0.150000  -0.150000     0.00100000
      235          -0.250000  -0.150000  -0.050000     0.00100000
      236          -0.250000  -0.150000   0.050000     0.00100000
      237          -0.250000  -0.150000   0.150000     0.00100000
      238          -0.250000  -0.150000   0.250000     0.00100000
      239          -0.250000  -0.150000   0.350000     0.00100000
      240          -0.250000  -0.150000   0.450000     0.00100000
      241          -0.250000  -0.050000  -0.450000     0.00100000
      242          -0.250000  -0.050000  -0.350000     0.00100000
      243          -0.250000  -0.050000  -0.250000     0.00100000
      244          -0.250000  -0.050000  -0.150000     0.00100000
      245          -0.250000  -0.050000  -0.050000     0.00100000
      246          -0.250000  -0.050000   0.050000     0.00100000
      247          -0.250000  -0.050000   0.150000     0.00100000
      248          -0.250000  -0.050000   0.250000     0.00100000
      249          -0.250000  -0.050000   0.350000     0.00100000
      250          -0.250000  -0.050000   0.450000     0.00100000
      251          -0.250000   0.050000  -0.450000     0.00100000
      252          -0.250000   0.050000  -0.350000     0.00100000
      253          -0.250000   0.050000  -0.250000     0.00100000
      254          -0.250000   0.050000  -0.150000     0.00100000
      255          -0.250000   0.050000  -0.050000     0.00100000
      256          -0.250000   0.050000   0.050000     0.00100000
      257          -0.250000   0.050000   0.150000     0.00100000
      258          -0.250000   0.050000   0.250000     0.00100000
      259          -0.250000   0.050000   0.350000     0.00100000
      260          -0.250000   0.050000   0.450000     0.00100000
      261          -0.250000   0.150000  -0.450000     0.00100000
      262          -0.250000   0.150000  -0.350000     0.00100000
      263          -0.250000   0.150000  -0.250000     0.00100000
      264          -0.250000   0.150000  -0.150000     0.00100000
      265          -0.250000   0.150000  -0.050000     0.00100000
      266          -0.250000   0.150000   0.050000     0.00100000
      267          -0.250000   0.150000   0.150000     0.00100000
      268          -0.250000   0.150000   0.250000     0.00100000
      269          -0.250000   0.150000   0.350000     0.00100000
      270          -0.250000   0.150000   0.450000     0.00100000
      271          -0.250000   0.250000  -0.450000     0.00100000
      272          -0.250000   0.250000  -0.350000     0.00100000
      273          -0.250000   0.250000  -0.250000     0.00100000
      274          -0.250000   0.250000  -0.150000     0.00100000
      275          -0.250000   0.250000  -0.050000     0.00100000
      276          -0.250000   0.250000   0.050000     0.00100000
      277          -0.250000   0.250000   0.150000     0.00100000
      278          -0.250000   0.250000   0.250000     0.00100000
      279          -0.250000   0.250000   0.350000     0.00100000
      280          -0.250000   0.250000   0.450000     0.00100000
      281          -0.250000   0.350000  -0.450000     0.00100000
      282          -0.250000   0.350000  -0.350000     0.00100000
      283          -0.250000   0.350000  -0.250000     0.00100000
      284          -0.250000   0.350000  -0.150000     0.00100000
      285          -0.250000   0.350000  -0.050000     0.00100000
      286          -0.250000   0.350000   0.050000     0.00100000
      287          -0.250000   0.350000   0.150000     0.00100000
      288          -0.250000   0.350000   0.250000     0.00100000
      289          -0.250000   0.350000   0.350000     0.00100000
      290          -0.250000   0.350000   0.450000     0.00100000
      291          -0.250000   0.450000  -0.450000     0.00100000
      292          -0.250000   0.450000  -0.350000     0.00100000
      293          -0.250000   0.450000  -0.250000     0.00100000
      294          -0.250000   0.450000  -0.150000     0.00100000
      295          -0.250000   0.450000  -0.050000     0.00100000
      296          -0.250000   0.450000   0.050000     0.00100000
      297          -0.250000   0.450000   0.150000     0.00100000
      298          -0.250000   0.450000   0.250000     0.00100000
      299          -0.250000   0.450000   0.350000     0.00100000
      300          -0.250000   0.450000   0.450000     0.00100000
      301          -0.150000  -0.450000  -0.450000     0.00100000
      302          -0.150000  -0.450000  -0.350000     0.00100000
      303          -0.150000  -0.450000  -0.250000     0.00100000
      304          -0.150000  -0.450000  -0.150000     0.00100000
      305          -0.150000  -0.450000  -0.050000     0.00100000
      306          -0.150000  -0.450000   0.050000     0.00100000
      307          -0.150000  -0.450000   0.150000     0.00100000
      308          -0.150000  -0.450000   0.250000     0.00100000
      309          -0.150000  -0.450000   0.350000     0.00100000
      310          -0.150000  -0.450000   0.450000     0.00100000
      311          -0.150000  -0.350000  -0.450000     0.00100000
      312          -0.150000  -0.350000  -0.350000     0.00100000
      313          -0.150000  -0.350000  -0.250000     0.00100000
      314          -0.150000  -0.350000  -0.150000     0.00100000
      315          -0.150000  -0.350000  -0.050000     0.00100000
      316          -0.150000  -0.350000   0.050000     0.00100000
      317          -0.150000  -0.350000   0.150000     0.00100000
      318          -0.150000  -0.350000   0.250000     0.00100000
      319          -0.150000  -0.350000   0.350000     0.00100000
      320          -0.150000  -0.350000   0.450000     0.00100000
      321          -0.150000  -0.250000  -0.450000     0.00100000
      322          -0.150000  -0.250000  -0.350000     0.00100000
      323          -0.150000  -0.250000  -0.250000     0.00100000
      324          -0.150000  -0.250000  -0.150000     0.00100000
      325          -0.150000  -0.250000  -0.050000     0.00100000
      326          -0.150000  -0.250000   0.050000     0.00100000
      327          -0.150000  -0.250000   0.150000     0.00100000
      328          -0.150000  -0.250000   0.250000     0.00100000
      329          -0.150000  -0.250000   0.350000     0.00100000
      330          -0.150000  -0.250000   0.450000     0.00100000
      331          -0.150000  -0.150000  -0.450000     0.00100000
      332          -0.150000  -0.150000  -0.350000     0.00100000
      333          -0.150000  -0.150000  -0.250000     0.00100000
      334          -0.150000  -0.150000  -0.150000     0.00100000
      335          -0.150000  -0.150000  -0.050000     0.00100000
      336          -0.150000  -0.150000   0.050000     0.00100000
      337          -0.150000  -0.150000   0.150000     0.00100000
      338          -0.150000  -0.150000   0.250000     0.00100000
      339          -0.150000  -0.150000   0.350000     0.00100000
      340          -0.150000  -0.150000   0.450000     0.00100000
      341          -0.150000  -0.050000  -0.450000     0.00100000
      342          -0.150000  -0.050000  -0.350000     0.00100000
      343          -0.150000  -0.050000  -0.250000     0.00100000
      344          -0.150000  -0.050000  -0.150000     0.00100000
      345          -0.150000  -0.050000  -0.050000     0.00100000
      346          -0.150000  -0.050000   0.050000     0.00100000
      347          -0.150000  -0.050000   0.150000     0.00100000
      348          -0.150000  -0.050000   0.250000     0.00100000
      349          -0.150000  -0.050000   0.350000     0.00100000
      350          -0.150000  -0.050000   0.450000     0.00100000
      351          -0.150000   0.050000  -0.450000     0.00100000
      352          -0.150000   0.050000  -0.350000     0.00100000
      353          -0.150000   0.050000  -0.250000     0.00100000
      354          -0.150000   0.050000  -0.150000     0.00100000
      355          -0.150000   0.050000  -0.050000     0.00100000
      356          -0.150000   0.050000   0.050000     0.00100000
      357          -0.150000   0.050000   0.150000     0.00100000
      358          -0.150000   0.050000   0.250000     0.00100000
      359          -0.150000   0.050000   0.350000     0.00100000
      360          -0.150000   0.050000   0.450000     0.00100000
      361          -0.150000   0.150000  -0.450000     0.00100000
      362          -0.150000   0.150000  -0.350000     0.00100000
      363          -0.150000   0.150000  -0.250000     0.00100000
      364          -0.150000   0.150000  -0.150000     0.00100000
      365          -0.150000   0.150000  -0.050000     0.00100000
      366          -0.150000   0.150000   0.050000     0.00100000
      367          -0.150000   0.150000   0.150000     0.00100000
      368          -0.150000   0.150000   0.250000     0.00100000
      369          -0.150000   0.150000   0.350000     0.00100000
      370          -0.150000   0.150000   0.450000     0.00100000
      371          -0.150000   0.250000  -0.450000     0.00100000
      372          -0.150000   0.250000  -0.350000     0.00100000
      373          -0.150000   0.250000  -0.250000     0.00100000
      374          -0.150000   0.250000  -0.150000     0.00100000
      375          -0.150000   0.250000  -0.050000     0.00100000
      376          -0.150000   0.250000   0.050000     0.00100000
      377          -0.150000   0.250000   0.150000     0.00100000
      378          -0.150000   0.250000   0.250000     0.00100000
      379          -0.150000   0.250000   0.350000     0.00100000
      380          -0.150000   0.250000   0.450000     0.00100000
      381          -0.150000   0.350000  -0.450000     0.00100000
      382          -0.150000   0.350000  -0.350000     0.00100000
      383          -0.150000   0.350000  -0.250000     0.00100000
      384          -0.150000   0.350000  -0.150000     0.00100000
      385          -0.150000   0.350000  -0.050000     0.00100000
      386          -0.150000   0.350000   0.050000     0.00100000
      387          -0.150000   0.350000   0.150000     0.00100000
      388          -0.150000   0.350000   0.250000     0.00100000
      389          -0.150000   0.350000   0.350000     0.00100000
      390          -0.150000   0.350000   0.450000     0.00100000
      391          -0.150000   0.450000  -0.450000     0.00100000
      392          -0.150000   0.450000  -0.350000     0.00100000
      393          -0.150000   0.450000  -0.250000     0.00100000
      394          -0.150000   0.450000  -0.150000     0.00100000
      395          -0.150000   0.450000  -0.050000     0.00100000
      396          -0.150000   0.450000   0.050000     0.00100000
      397          -0.150000   0.450000   0.150000     0.00100000
      398          -0.150000   0.450000   0.250000     0.00100000
      399          -0.150000   0.450000   0.350000     0.00100000
      400          -0.150000   0.450000   0.450000     0.00100000
      401          -0.050000  -0.450000  -0.450000     0.00100000
      402          -0.050000  -0.450000  -0.350000     0.00100000
      403          -0.050000  -0.450000  -0.250000     0.00100000
      404          -0.050000  -0.450000  -0.150000     0.00100000
      405          -0.050000  -0.450000  -0.050000     0.00100000
      406          -0.050000  -0.450000   0.050000     0.00100000
      407          -0.050000  -0.450000   0.150000     0.00100000
      408          -0.050000  -0.450000   0.250000     0.00100000
      409          -0.050000  -0.450000   0.350000     0.00100000
      410          -0.050000  -0.450000   0.450000     0.00100000
      411          -0.050000  -0.350000  -0.450000     0.00100000
      412          -0.050000  -0.350000  -0.350000     0.00100000
      413          -0.050000  -0.350000  -0.250000     0.00100000
      414          -0.050000  -0.350000  -0.150000     0.00100000
      415          -0.050000  -0.350000  -0.050000     0.00100000
      416          -0.050000  -0.350000   0.050000     0.00100000
      417          -0.050000  -0.350000   0.150000     0.00100000
      418          -0.050000  -0.350000   0.250000     0.00100000
      419          -0.050000  -0.350000   0.350000     0.00100000
      420          -0.050000  -0.350000   0.450000     0.00100000
      421          -0.050000  -0.250000  -0.450000     0.00100000
      422          -0.050000  -0.250000  -0.350000     0.00100000
      423          -0.050000  -0.250000  -0.250000     0.00100000
      424          -0.050000  -0.250000  -0.150000     0.00100000
      425          -0.050000  -0.250000  -0.050000     0.00100000
      426          -0.050000  -0.250000   0.050000     0.00100000
      427          -0.050000  -0.250000   0.150000     0.00100000
      428          -0.050000  -0.250000   0.250000     0.00100000
      429          -0.050000  -0.250000   0.350000     0.00100000
      430          -0.050000  -0.250000   0.450000     0.00100000
      431          -0.050000  -0.150000  -0.450000     0.00100000
      432          -0.050000  -0.150000  -0.350000     0.00100000
      433          -0.050000  -0.150000  -0.250000     0.00100000
      434          -0.050000  -0.150000  -0.150000     0.00100000
      435          -0.050000  -0.150000  -0.050000     0.00100000
      436          -0.050000  -0.150000   0.050000     0.00100000
      437          -0.050000  -0.150000   0.150000     0.00100000
      438          -0.050000  -0.150000   0.250000     0.00100000
      439          -0.050000  -0.150000   0.350000     0.00100000
      440          -0.050000  -0.150000   0.450000     0.00100000
      441          -0.050000  -0.050000  -0.450000     0.00100000
      442          -0.050000  -0.050000  -0.350000     0.00100000
      443          -0.050000  -0.050000  -0.250000     0.00100000
      444          -0.050000  -0.050000  -0.150000     0.00100000
      445          -0.050000  -0.050000  -0.050000     0.00100000
      446          -0.050000  -0.050000   0.050000     0.00100000
      447          -0.050000  -0.050000   0.150000     0.00100000
      448          -0.050000  -0.050000   0.250000     0.00100000
      449          -0.050000  -0.050000   0.350000     0.00100000
      450          -0.050000  -0.050000   0.450000     0.00100000
      451          -0.050000   0.050000  -0.450000     0.00100000
      452          -0.050000   0.050000  -0.350000     0.00100000
      453          -0.050000   0.050000  -0.250000     0.00100000
      454          -0.050000   0.050000  -0.150000     0.00100000
      455          -0.050000   0.050000  -0.050000     0.00100000
      456          -0.050000   0.050000   0.050000     0.00100000
      457          -0.050000   0.050000   0.150000     0.00100000
      458          -0.050000   0.050000   0.250000     0.00100000
      459          -0.050000   0.050000   0.350000     0.00100000
      460          -0.050000   0.050000   0.450000     0.00100000
      461          -0.050000   0.150000  -0.450000     0.00100000
      462          -0.050000   0.150000  -0.350000     0.00100000
      463          -0.050000   0.150000  -0.250000     0.00100000
      464          -0.050000   0.150000  -0.150000     0.00100000
      465          -0.050000   0.150000  -0.050000     0.00100000
      466          -0.050000   0.150000   0.050000     0.00100000
      467          -0.050000   0.150000   0.150000     0.00100000
      468          -0.050000   0.150000   0.250000     0.00100000
      469          -0.050000   0.150000   0.350000     0.00100000
      470          -0.050000   0.150000   0.450000     0.00100000
      471          -0.050000   0.250000  -0.450000     0.00100000
      472          -0.050000   0.250000  -0.350000     0.00100000
      473          -0.050000   0.250000  -0.250000     0.00100000
      474          -0.050000   0.250000  -0.150000     0.00100000
      475          -0.050000   0.250000  -0.050000     0.00100000
      476          -0.050000   0.250000   0.050000     0.00100000
      477          -0.050000   0.250000   0.150000     0.00100000
      478          -0.050000   0.250000   0.250000     0.00100000
      479          -0.050000   0.250000   0.350000     0.00100000
      480          -0.050000   0.250000   0.450000     0.00100000
      481          -0.050000   0.350000  -0.450000     0.00100000
      482          -0.050000   0.350000  -0.350000     0.00100000
      483          -0.050000   0.350000  -0.250000     0.00100000
      484          -0.050000   0.350000  -0.150000     0.00100000
      485          -0.050000   0.350000  -0.050000     0.00100000
      486          -0.050000   0.350000   0.050000     0.00100000
      487          -0.050000   0.350000   0.150000     0.00100000
      488          -0.050000   0.350000   0.250000     0.00100000
      489          -0.050000   0.350000   0.350000     0.00100000
      490          -0.050000   0.350000   0.450000     0.00100000
      491          -0.050000   0.450000  -0.450000     0.00100000
      492          -0.050000   0.450000  -0.350000     0.00100000
      493          -0.050000   0.450000  -0.250000     0.00100000
      494          -0.050000   0.450000  -0.150000     0.00100000
      495          -0.050000   0.450000  -0.050000     0.00100000
      496          -0.050000   0.450000   0.050000     0.00100000
      497          -0.050000   0.450000   0.150000     0.00100000
      498          -0.050000   0.450000   0.250000     0.00100000
      499          -0.050000   0.450000   0.350000     0.00100000
      500          -0.050000   0.450000   0.450000     0.00100000
      501           0.050000  -0.450000  -0.450000     0.00100000
      502           0.050000  -0.450000  -0.350000     0.00100000
      503           0.050000  -0.450000  -0.250000     0.00100000
      504           0.050000  -0.450000  -0.150000     0.00100000
      505           0.050000  -0.450000  -0.050000     0.00100000
      506           0.050000  -0.450000   0.050000     0.00100000
      507           0.050000  -0.450000   0.150000     0.00100000
      508           0.050000  -0.450000   0.250000     0.00100000
      509           0.050000  -0.450000   0.350000     0.00100000
      510           0.050000  -0.450000   0.450000     0.00100000
      511           0.050000  -0.350000  -0.450000     0.00100000
      512           0.050000  -0.350000  -0.350000     0.00100000
      513           0.050000  -0.350000  -0.250000     0.00100000
      514           0.050000  -0.350000  -0.150000     0.00100000
      515           0.050000  -0.350000  -0.050000     0.00100000
      516           0.050000  -0.350000   0.050000     0.00100000
      517           0.050000  -0.350000   0.150000     0.00100000
      518           0.050000  -0.350000   0.250000     0.00100000
      519           0.050000  -0.350000   0.350000     0.00100000
      520           0.050000  -0.350000   0.450000     0.00100000
      521           0.050000  -0.250000  -0.450000     0.00100000
      522           0.050000  -0.250000  -0.350000     0.00100000
      523           0.050000  -0.250000  -0.250000     0.00100000
      524           0.050000  -0.250000  -0.150000     0.00100000
      525           0.050000  -0.250000  -0.050000     0.00100000
      526           0.050000  -0.250000   0.050000     0.00100000
      527           0.050000  -0.250000   0.150000     0.00100000
      528           0.050000  -0.250000   0.250000     0.00100000
      529           0.050000  -0.250000   0.350000     0.00100000
      530           0.050000  -0.250000   0.450000     0.00100000
      531           0.050000  -0.150000  -0.450000     0.00100000
      532           0.050000  -0.150000  -0.350000     0.00100000
      533           0.050000  -0.150000  -0.250000     0.00100000
      534           0.050000  -0.150000  -0.150000     0.00100000
      535           0.050000  -0.150000  -0.050000     0.00100000
      536           0.050000  -0.150000   0.050000     0.00100000
      537           0.050000  -0.150000   0.150000     0.00100000
      538           0.050000  -0.150000   0.250000     0.00100000
      539           0.050000  -0.150000   0.350000     0.00100000
      540           0.050000  -0.150000   0.450000     0.00100000
      541           0.050000  -0.050000  -0.450000     0.00100000
      542           0.050000  -0.050000  -0.350000     0.00100000
      543           0.050000  -0.050000  -0.250000     0.00100000
      544           0.050000  -0.050000  -0.150000     0.00100000
      545           0.050000  -0.050000  -0.050000     0.00100000
      546           0.050000  -0.050000   0.050000     0.00100000
      547           0.050000  -0.050000   0.150000     0.00100000
      548           0.050000  -0.050000   0.250000     0.00100000
      549           0.050000  -0.050000   0.350000     0.00100000
      550           0.050000  -0.050000   0.450000     0.00100000
      551           0.050000   0.050000  -0.450000     0.00100000
      552           0.050000   0.050000  -0.350000     0.00100000
      553           0.050000   0.050000  -0.250000     0.00100000
      554           0.050000   0.050000  -0.150000     0.00100000
      555           0.050000   0.050000  -0.050000     0.00100000
      556           0.050000   0.050000   0.050000     0.00100000
      557           0.050000   0.050000   0.150000     0.00100000
      558           0.050000   0.050000   0.250000     0.00100000
      559           0.050000   0.050000   0.350000     0.00100000
      560           0.050000   0.050000   0.450000     0.00100000
      561           0.050000   0.150000  -0.450000     0.00100000
      562           0.050000   0.150000  -0.350000     0.00100000
      563           0.050000   0.150000  -0.250000     0.00100000
      564           0.050000   0.150000  -0.150000     0.00100000
      565           0.050000   0.150000  -0.050000     0.00100000
      566           0.050000   0.150000   0.050000     0.00100000
      567           0.050000   0.150000   0.150000     0.00100000
      568           0.050000   0.150000   0.250000     0.00100000
      569           0.050000   0.150000   0.350000     0.00100000
      570           0.050000   0.150000   0.450000     0.00100000
      571           0.050000   0.250000  -0.450000     0.00100000
      572           0.050000   0.250000  -0.350000     0.00100000
      573           0.050000   0.250000  -0.250000     0.00100000
      574           0.050000   0.250000  -0.150000     0.00100000
      575           0.050000   0.250000  -0.050000     0.00100000
      576           0.050000   0.250000   0.050000     0.00100000
      577           0.050000   0.250000   0.150000     0.00100000
      578           0.050000   0.250000   0.250000     0.00100000
      579           0.050000   0.250000   0.350000     0.00100000
      580           0.050000   0.250000   0.450000     0.00100000
      581           0.050000   0.350000  -0.450000     0.00100000
      582           0.050000   0.350000  -0.350000     0.00100000
      583           0.050000   0.350000  -0.250000     0.00100000
      584           0.050000   0.350000  -0.150000     0.00100000
      585           0.050000   0.350000  -0.050000     0.00100000
      586           0.050000   0.350000   0.050000     0.00100000
      587           0.050000   0.350000   0.150000     0.00100000
      588           0.050000   0.350000   0.250000     0.00100000
      589           0.050000   0.350000   0.350000     0.00100000
      590           0.050000   0.350000   0.450000     0.00100000
      591           0.050000   0.450000  -0.450000     0.00100000
      592           0.050000   0.450000  -0.350000     0.00100000
      593           0.050000   0.450000  -0.250000     0.00100000
      594           0.050000   0.450000  -0.150000     0.00100000
      595           0.050000   0.450000  -0.050000     0.00100000
      596           0.050000   0.450000   0.050000     0.00100000
      597           0.050000   0.450000   0.150000     0.00100000
      598           0.050000   0.450000   0.250000     0.00100000
      599           0.050000   0.450000   0.350000     0.00100000
      600           0.050000   0.450000   0.450000     0.00100000
      601           0.150000  -0.450000  -0.450000     0.00100000
      602           0.150000  -0.450000  -0.350000     0.00100000
      603           0.150000  -0.450000  -0.250000     0.00100000
      604           0.150000  -0.450000  -0.150000     0.00100000
      605           0.150000  -0.450000  -0.050000     0.00100000
      606           0.150000  -0.450000   0.050000     0.00100000
      607           0.150000  -0.450000   0.150000     0.00100000
      608           0.150000  -0.450000   0.250000     0.00100000
      609           0.150000  -0.450000   0.350000     0.00100000
      610           0.150000  -0.450000   0.450000     0.00100000
      611           0.150000  -0.350000  -0.450000     0.00100000
      612           0.150000  -0.350000  -0.350000     0.00100000
      613           0.150000  -0.350000  -0.250000     0.00100000
      614           0.150000  -0.350000  -0.150000     0.00100000
      615           0.150000  -0.350000  -0.050000     0.00100000
      616           0.150000  -0.350000   0.050000     0.00100000
      617           0.150000  -0.350000   0.150000     0.00100000
      618           0.150000  -0.350000   0.250000     0.00100000
      619           0.150000  -0.350000   0.350000     0.00100000
      620           0.150000  -0.350000   0.450000     0.00100000
      621           0.150000  -0.250000  -0.450000     0.00100000
      622           0.150000  -0.250000  -0.350000     0.00100000
      623           0.150000  -0.250000  -0.250000     0.00100000
      624           0.150000  -0.250000  -0.150000     0.00100000
      625           0.150000  -0.250000  -0.050000     0.00100000
      626           0.150000  -0.250000   0.050000     0.00100000
      627           0.150000  -0.250000   0.150000     0.00100000
      628           0.150000  -0.250000   0.250000     0.00100000
      629           0.150000  -0.250000   0.350000     0.00100000
      630           0.150000  -0.250000   0.450000     0.00100000
      631           0.150000  -0.150000  -0.450000     0.00100000
      632           0.150000  -0.150000  -0.350000     0.00100000
      633           0.150000  -0.150000  -0.250000     0.00100000
      634           0.150000  -0.150000  -0.150000     0.00100000
      635           0.150000  -0.150000  -0.050000     0.00100000
      636           0.150000  -0.150000   0.050000     0.00100000
      637           0.150000  -0.150000   0.150000     0.00100000
      638           0.150000  -0.150000   0.250000     0.00100000
      639           0.150000  -0.150000   0.350000     0.00100000
      640           0.150000  -0.150000   0.450000     0.00100000
      641           0.150000  -0.050000  -0.450000     0.00100000
      642           0.150000  -0.050000  -0.350000     0.00100000
      643           0.150000  -0.050000  -0.250000     0.00100000
      644           0.150000  -0.050000  -0.150000     0.00100000
      645           0.150000  -0.050000  -0.050000     0.00100000
      646           0.150000  -0.050000   0.050000     0.00100000
      647           0.150000  -0.050000   0.150000     0.00100000
      648           0.150000  -0.050000   0.250000     0.00100000
      649           0.150000  -0.050000   0.350000     0.00100000
      650           0.150000  -0.050000   0.450000     0.00100000
      651           0.150000   0.050000  -0.450000     0.00100000
      652           0.150000   0.050000  -0.350000     0.00100000
      653           0.150000   0.050000  -0.250000     0.00100000
      654           0.150000   0.050000  -0.150000     0.00100000
      655           0.150000   0.050000  -0.050000     0.00100000
      656           0.150000   0.050000   0.050000     0.00100000
      657           0.150000   0.050000   0.150000     0.00100000
      658           0.150000   0.050000   0.250000     0.00100000
      659           0.150000   0.050000   0.350000     0.00100000
      660           0.150000   0.050000   0.450000     0.00100000
      661           0.150000   0.150000  -0.450000     0.00100000
      662           0.150000   0.150000  -0.350000     0.00100000
      663           0.150000   0.150000  -0.250000     0.00100000
      664           0.150000   0.150000  -0.150000     0.00100000
      665           0.150000   0.150000  -0.050000     0.00100000
      666           0.150000   0.150000   0.050000     0.00100000
      667           0.150000   0.150000   0.150000     0.00100000
      668           0.150000   0.150000   0.250000     0.00100000
      669           0.150000   0.150000   0.350000     0.00100000
      670           0.150000   0.150000   0.450000     0.00100000
      671           0.150000   0.250000  -0.450000     0.00100000
      672           0.150000   0.250000  -0.350000     0.00100000
      673           0.150000   0.250000  -0.250000     0.00100000
      674           0.150000   0.250000  -0.150000     0.00100000
      675           0.150000   0.250000  -0.050000     0.00100000
      676           0.150000   0.250000   0.050000     0.00100000
      677           0.150000   0.250000   0.150000     0.00100000
      678           0.150000   0.250000   0.250000     0.00100000
      679           0.150000   0.250000   0.350000     0.00100000
      680           0.150000   0.250000   0.450000     0.00100000
      681           0.150000   0.350000  -0.450000     0.00100000
      682           0.150000   0.350000  -0.350000     0.00100000
      683           0.150000   0.350000  -0.250000     0.00100000
      684           0.150000   0.350000  -0.150000     0.00100000
      685           0.150000   0.350000  -0.050000     0.00100000
      686           0.150000   0.350000   0.050000     0.00100000
      687           0.150000   0.350000   0.150000     0.00100000
      688           0.150000   0.350000   0.250000     0.00100000
      689           0.150000   0.350000   0.350000     0.00100000
      690           0.150000   0.350000   0.450000     0.00100000
      691           0.150000   0.450000  -0.450000     0.00100000
      692           0.150000   0.450000  -0.350000     0.00100000
      693           0.150000   0.450000  -0.250000     0.00100000
      694           0.150000   0.450000  -0.150000     0.00100000
      695           0.150000   0.450000  -0.050000     0.00100000
      696           0.150000   0.450000   0.050000     0.00100000
      697           0.150000   0.450000   0.150000     0.00100000
      698           0.150000   0.450000   0.250000     0.00100000
      699           0.150000   0.450000   0.350000     0.00100000
      700           0.150000   0.450000   0.450000     0.00100000
      701           0.250000  -0.450000  -0.450000     0.00100000
      702           0.250000  -0.450000  -0.350000     0.00100000
      703           0.250000  -0.450000  -0.250000     0.00100000
      704           0.250000  -0.450000  -0.150000     0.00100000
      705           0.250000  -0.450000  -0.050000     0.00100000
      706           0.250000  -0.450000   0.050000     0.00100000
      707           0.250000  -0.450000   0.150000     0.00100000
      708           0.250000  -0.450000   0.250000     0.00100000
      709           0.250000  -0.450000   0.350000     0.00100000
      710           0.250000  -0.450000   0.450000     0.00100000
      711           0.250000  -0.350000  -0.450000     0.00100000
      712           0.250000  -0.350000  -0.350000     0.00100000
      713           0.250000  -0.350000  -0.250000     0.00100000
      714           0.250000  -0.350000  -0.150000     0.00100000
      715           0.250000  -0.350000  -0.050000     0.00100000
      716           0.250000  -0.350000   0.050000     0.00100000
      717           0.250000  -0.350000   0.150000     0.00100000
      718           0.250000  -0.350000   0.250000     0.00100000
      719           0.250000  -0.350000   0.350000     0.00100000
      720           0.250000  -0.350000   0.450000     0.00100000
      721           0.250000  -0.250000  -0.450000     0.00100000
      722           0.250000  -0.250000  -0.350000     0.00100000
      723           0.250000  -0.250000  -0.250000     0.00100000
      724           0.250000  -0.250000  -0.150000     0.00100000
      725           0.250000  -0.250000  -0.050000     0.00100000
      726           0.250000  -0.250000   0.050000     0.00100000
      727           0.250000  -0.250000   0.150000     0.00100000
      728           0.250000  -0.250000   0.250000     0.00100000
      729           0.250000  -0.250000   0.350000     0.00100000
      730           0.250000  -0.250000   0.450000     0.00100000
      731           0.250000  -0.150000  -0.450000     0.00100000
      732           0.250000  -0.150000  -0.350000     0.00100000
      733           0.250000  -0.150000  -0.250000     0.00100000
      734           0.250000  -0.150000  -0.150000     0.00100000
      735           0.250000  -0.150000  -0.050000     0.00100000
      736           0.250000  -0.150000   0.050000     0.00100000
      737           0.250000  -0.150000   0.150000     0.00100000
      738           0.250000  -0.150000   0.250000     0.00100000
      739           0.250000  -0.150000   0.350000     0.00100000
      740           0.250000  -0.150000   0.450000     0.00100000
      741           0.250000  -0.050000  -0.450000     0.00100000
      742           0.250000  -0.050000  -0.350000     0.00100000
      743           0.250000  -0.050000  -0.250000     0.00100000
      744           0.250000  -0.050000  -0.150000     0.00100000
      745           0.250000  -0.050000  -0.050000     0.00100000
      746           0.250000  -0.050000   0.050000     0.00100000
      747           0.250000  -0.050000   0.150000     0.00100000
      748           0.250000  -0.050000   0.250000     0.00100000
      749           0.250000  -0.050000   0.350000     0.00100000
      750           0.250000  -0.050000   0.450000     0.00100000
      751           0.250000   0.050000  -0.450000     0.00100000
      752           0.250000   0.050000  -0.350000     0.00100000
      753           0.250000   0.050000  -0.250000     0.00100000
      754           0.250000   0.050000  -0.150000     0.00100000
      755           0.250000   0.050000  -0.050000     0.00100000
      756           0.250000   0.050000   0.050000     0.00100000
      757           0.250000   0.050000   0.150000     0.00100000
      758           0.250000   0.050000   0.250000     0.00100000
      759           0.250000   0.050000   0.350000     0.00100000
      760           0.250000   0.050000   0.450000     0.00100000
      761           0.250000   0.150000  -0.450000     0.00100000
      762           0.250000   0.150000  -0.350000     0.00100000
      763           0.250000   0.150000  -0.250000     0.00100000
      764           0.250000   0.150000  -0.150000     0.00100000
      765           0.250000   0.150000  -0.050000     0.00100000
      766           0.250000   0.150000   0.050000     0.00100000
      767           0.250000   0.150000   0.150000     0.00100000
      768           0.250000   0.150000   0.250000     0.00100000
      769           0.250000   0.150000   0.350000     0.00100000
      770           0.250000   0.150000   0.450000     0.00100000
      771           0.250000   0.250000  -0.450000     0.00100000
      772           0.250000   0.250000  -0.350000     0.00100000
      773           0.250000   0.250000  -0.250000     0.00100000
      774           0.250000   0.250000  -0.150000     0.00100000
      775           0.250000   0.250000  -0.050000     0.00100000
      776           0.250000   0.250000   0.050000     0.00100000
      777           0.250000   0.250000   0.150000     0.00100000
      778           0.250000   0.250000   0.250000     0.00100000
      779           0.250000   0.250000   0.350000     0.00100000
      780           0.250000   0.250000   0.450000     0.00100000
      781           0.250000   0.350000  -0.450000     0.00100000
      782           0.250000   0.350000  -0.350000     0.00100000
      783           0.250000   0.350000  -0.250000     0.00100000
      784           0.250000   0.350000  -0.150000     0.00100000
      785           0.250000   0.350000  -0.050000     0.00100000
      786           0.250000   0.350000   0.050000     0.00100000
      787           0.250000   0.350000   0.150000     0.00100000
      788           0.250000   0.350000   0.250000     0.00100000
      789           0.250000   0.350000   0.350000     0.00100000
      790           0.250000   0.350000   0.450000     0.00100000
      791           0.250000   0.450000  -0.450000     0.00100000
      792           0.250000   0.450000  -0.350000     0.00100000
      793           0.250000   0.450000  -0.250000     0.00100000
      794           0.250000   0.450000  -0.150000     0.00100000
      795           0.250000   0.450000  -0.050000     0.00100000
      796           0.250000   0.450000   0.050000     0.00100000
      797           0.250000   0.450000   0.150000     0.00100000
      798           0.250000   0.450000   0.250000     0.00100000
      799           0.250000   0.450000   0.350000     0.00100000
      800           0.250000   0.450000   0.450000     0.00100000
      801           0.350000  -0.450000  -0.450000     0.00100000
      802           0.350000  -0.450000  -0.350000     0.00100000
      803           0.350000  -0.450000  -0.250000     0.00100000
      804           0.350000  -0.450000  -0.150000     0.00100000
      805           0.350000  -0.450000  -0.050000     0.00100000
      806           0.350000  -0.450000   0.050000     0.00100000
      807           0.350000  -0.450000   0.150000     0.00100000
      808           0.350000  -0.450000   0.250000     0.00100000
      809           0.350000  -0.450000   0.350000     0.00100000
      810           0.350000  -0.450000   0.450000     0.00100000
      811           0.350000  -0.350000  -0.450000     0.00100000
      812           0.350000  -0.350000  -0.350000     0.00100000
      813           0.350000  -0.350000  -0.250000     0.00100000
      814           0.350000  -0.350000  -0.150000     0.00100000
      815           0.350000  -0.350000  -0.050000     0.00100000
      816           0.350000  -0.350000   0.050000     0.00100000
      817           0.350000  -0.350000   0.150000     0.00100000
      818           0.350000  -0.350000   0.250000     0.00100000
      819           0.350000  -0.350000   0.350000     0.00100000
      820           0.350000  -0.350000   0.450000     0.00100000
      821           0.350000  -0.250000  -0.450000     0.00100000
      822           0.350000  -0.250000  -0.350000     0.00100000
      823           0.350000  -0.250000  -0.250000     0.00100000
      824           0.350000  -0.250000  -0.150000     0.00100000
      825           0.350000  -0.250000  -0.050000     0.00100000
      826           0.350000  -0.250000   0.050000     0.00100000
      827           0.350000  -0.250000   0.150000     0.00100000
      828           0.350000  -0.250000   0.250000     0.00100000
      829           0.350000  -0.250000   0.350000     0.00100000
      830           0.350000  -0.250000   0.450000     0.00100000
      831           0.350000  -0.150000  -0.450000     0.00100000
      832           0.350000  -0.150000  -0.350000     0.00100000
      833           0.350000  -0.150000  -0.250000     0.00100000
      834           0.350000  -0.150000  -0.150000     0.00100000
      835           0.350000  -0.150000  -0.050000     0.00100000
      836           0.350000  -0.150000   0.050000     0.00100000
      837           0.350000  -0.150000   0.150000     0.00100000
      838           0.350000  -0.150000   0.250000     0.00100000
      839           0.350000  -0.150000   0.350000     0.00100000
      840           0.350000  -0.150000   0.450000     0.00100000
      841           0.350000  -0.050000  -0.450000     0.00100000
      842           0.350000  -0.050000  -0.350000     0.00100000
      843           0.350000  -0.050000  -0.250000     0.00100000
      844           0.350000  -0.050000  -0.150000     0.00100000
      845           0.350000  -0.050000  -0.050000     0.00100000
      846           0.350000  -0.050000   0.050000     0.00100000
      847           0.350000  -0.050000   0.150000     0.00100000
      848           0.350000  -0.050000   0.250000     0.00100000
      849           0.350000  -0.050000   0.350000     0.00100000
      850           0.350000  -0.050000   0.450000     0.00100000
      851           0.350000   0.050000  -0.450000     0.00100000
      852           0.350000   0.050000  -0.350000     0.00100000
      853           0.350000   0.050000  -0.250000     0.00100000
      854           0.350000   0.050000  -0.150000     0.00100000
      855           0.350000   0.050000  -0.050000     0.00100000
      856           0.350000   0.050000   0.050000     0.00100000
      857           0.350000   0.050000   0.150000     0.00100000
      858           0.350000   0.050000   0.250000     0.00100000
      859           0.350000   0.050000   0.350000     0.00100000
      860           0.350000   0.050000   0.450000     0.00100000
      861           0.350000   0.150000  -0.450000     0.00100000
      862           0.350000   0.150000  -0.350000     0.00100000
      863           0.350000   0.150000  -0.250000     0.00100000
      864           0.350000   0.150000  -0.150000     0.00100000
      865           0.350000   0.150000  -0.050000     0.00100000
      866           0.350000   0.150000   0.050000     0.00100000
      867           0.350000   0.150000   0.150000     0.00100000
      868           0.350000   0.150000   0.250000     0.00100000
      869           0.350000   0.150000   0.350000     0.00100000
      870           0.350000   0.150000   0.450000     0.00100000
      871           0.350000   0.250000  -0.450000     0.00100000
      872           0.350000   0.250000  -0.350000     0.00100000
      873           0.350000   0.250000  -0.250000     0.00100000
      874           0.350000   0.250000  -0.150000     0.00100000
      875           0.350000   0.250000  -0.050000     0.00100000
      876           0.350000   0.250000   0.050000     0.00100000
      877           0.350000   0.250000   0.150000     0.00100000
      878           0.350000   0.250000   0.250000     0.00100000
      879           0.350000   0.250000   0.350000     0.00100000
      880           0.350000   0.250000   0.450000     0.00100000
      881           0.350000   0.350000  -0.450000     0.00100000
      882           0.350000   0.350000  -0.350000     0.00100000
      883           0.350000   0.350000  -0.250000     0.00100000
      884           0.350000   0.350000  -0.150000     0.00100000
      885           0.350000   0.350000  -0.050000     0.00100000
      886           0.350000   0.350000   0.050000     0.00100000
      887           0.350000   0.350000   0.150000     0.00100000
      888           0.350000   0.350000   0.250000     0.00100000
      889           0.350000   0.350000   0.350000     0.00100000
      890           0.350000   0.350000   0.450000     0.00100000
      891           0.350000   0.450000  -0.450000     0.00100000
      892           0.350000   0.450000  -0.350000     0.00100000
      893           0.350000   0.450000  -0.250000     0.00100000
      894           0.350000   0.450000  -0.150000     0.00100000
      895           0.350000   0.450000  -0.050000     0.00100000
      896           0.350000   0.450000   0.050000     0.00100000
      897           0.350000   0.450000   0.150000     0.00100000
      898           0.350000   0.450000   0.250000     0.00100000
      899           0.350000   0.450000   0.350000     0.00100000
      900           0.350000   0.450000   0.450000     0.00100000
      901           0.450000  -0.450000  -0.450000     0.00100000
      902           0.450000  -0.450000  -0.350000     0.00100000
      903           0.450000  -0.450000  -0.250000     0.00100000
      904           0.450000  -0.450000  -0.150000     0.00100000
      905           0.450000  -0.450000  -0.050000     0.00100000
      906           0.450000  -0.450000   0.050000     0.00100000
      907           0.450000  -0.450000   0.150000     0.00100000
      908           0.450000  -0.450000   0.250000     0.00100000
      909           0.450000  -0.450000   0.350000     0.00100000
      910           0.450000  -0.450000   0.450000     0.00100000
      911           0.450000  -0.350000  -0.450000     0.00100000
      912           0.450000  -0.350000  -0.350000     0.00100000
      913           0.450000  -0.350000  -0.250000     0.00100000
      914           0.450000  -0.350000  -0.150000     0.00100000
      915           0.450000  -0.350000  -0.050000     0.00100000
      916           0.450000  -0.350000   0.050000     0.00100000
      917           0.450000  -0.350000   0.150000     0.00100000
      918           0.450000  -0.350000   0.250000     0.00100000
      919           0.450000  -0.350000   0.350000     0.00100000
      920           0.450000  -0.350000   0.450000     0.00100000
      921           0.450000  -0.250000  -0.450000     0.00100000
      922           0.450000  -0.250000  -0.350000     0.00100000
      923           0.450000  -0.250000  -0.250000     0.00100000
      924           0.450000  -0.250000  -0.150000     0.00100000
      925           0.450000  -0.250000  -0.050000     0.00100000
      926           0.450000  -0.250000   0.050000     0.00100000
      927           0.450000  -0.250000   0.150000     0.00100000
      928           0.450000  -0.250000   0.250000     0.00100000
      929           0.450000  -0.250000   0.350000     0.00100000
      930           0.450000  -0.250000   0.450000     0.00100000
      931           0.450000  -0.150000  -0.450000     0.00100000
      932           0.450000  -0.150000  -0.350000     0.00100000
      933           0.450000  -0.150000  -0.250000     0.00100000
      934           0.450000  -0.150000  -0.150000     0.00100000
      935           0.450000  -0.150000  -0.050000     0.00100000
      936           0.450000  -0.150000   0.050000     0.00100000
      937           0.450000  -0.150000   0.150000     0.00100000
      938           0.450000  -0.150000   0.250000     0.00100000
      939           0.450000  -0.150000   0.350000     0.00100000
      940           0.450000  -0.150000   0.450000     0.00100000
      941           0.450000  -0.050000  -0.450000     0.00100000
      942           0.450000  -0.050000  -0.350000     0.00100000
      943           0.450000  -0.050000  -0.250000     0.00100000
      944           0.450000  -0.050000  -0.150000     0.00100000
      945           0.450000  -0.050000  -0.050000     0.00100000
      946           0.450000  -0.050000   0.050000     0.00100000
      947           0.450000  -0.050000   0.150000     0.00100000
      948           0.450000  -0.050000   0.250000     0.00100000
      949           0.450000  -0.050000   0.350000     0.00100000
      950           0.450000  -0.050000   0.450000     0.00100000
      951           0.450000   0.050000  -0.450000     0.00100000
      952           0.450000   0.050000  -0.350000     0.00100000
      953           0.450000   0.050000  -0.250000     0.00100000
      954           0.450000   0.050000  -0.150000     0.00100000
      955           0.450000   0.050000  -0.050000     0.00100000
      956           0.450000   0.050000   0.050000     0.00100000
      957           0.450000   0.050000   0.150000     0.00100000
      958           0.450000   0.050000   0.250000     0.00100000
      959           0.450000   0.050000   0.350000     0.00100000
      960           0.450000   0.050000   0.450000     0.00100000
      961           0.450000   0.150000  -0.450000     0.00100000
      962           0.450000   0.150000  -0.350000     0.00100000
      963           0.450000   0.150000  -0.250000     0.00100000
      964           0.450000   0.150000  -0.150000     0.00100000
      965           0.450000   0.150000  -0.050000     0.00100000
      966           0.450000   0.150000   0.050000     0.00100000
      967           0.450000   0.150000   0.150000     0.00100000
      968           0.450000   0.150000   0.250000     0.00100000
      969           0.450000   0.150000   0.350000     0.00100000
      970           0.450000   0.150000   0.450000     0.00100000
      971           0.450000   0.250000  -0.450000     0.00100000
      972           0.450000   0.250000  -0.350000     0.00100000
      973           0.450000   0.250000  -0.250000     0.00100000
      974           0.450000   0.250000  -0.150000     0.00100000
      975           0.450000   0.250000  -0.050000     0.00100000
      976           0.450000   0.250000   0.050000     0.00100000
      977           0.450000   0.250000   0.150000     0.00100000
      978           0.450000   0.250000   0.250000     0.00100000
      979           0.450000   0.250000   0.350000     0.00100000
      980           0.450000   0.250000   0.450000     0.00100000
      981           0.450000   0.350000  -0.450000     0.00100000
      982           0.450000   0.350000  -0.350000     0.00100000
      983           0.450000   0.350000  -0.250000     0.00100000
      984           0.450000   0.350000  -0.150000     0.00100000
      985           0.450000   0.350000  -0.050000     0.00100000
      986           0.450000   0.350000   0.050000     0.00100000
      987           0.450000   0.350000   0.150000     0.00100000
      988           0.450000   0.350000   0.250000     0.00100000
      989           0.450000   0.350000   0.350000     0.00100000
      990           0.450000   0.350000   0.450000     0.00100000
      991           0.450000   0.450000  -0.450000     0.00100000
      992           0.450000   0.450000  -0.350000     0.00100000
      993           0.450000   0.450000  -0.250000     0.00100000
      994           0.450000   0.450000  -0.150000     0.00100000
      995           0.450000   0.450000  -0.050000     0.00100000
      996           0.450000   0.450000   0.050000     0.00100000
      997           0.450000   0.450000   0.150000     0.00100000
      998           0.450000   0.450000   0.250000     0.00100000
      999           0.450000   0.450000   0.350000     0.00100000
     1000           0.450000   0.450000   0.450000     0.00100000
--------------------------------------------------------------------------------


********************************************************************************
*  General input information                                                   *
********************************************************************************

  Species output for all configurations : 

--------------------------------------------------------------------------------
  Species    Type    Atomic    Atomic    Charge       Radii (Angs)     Library
                     Number     Mass       (e)     Cova   Ionic  VDW   Symbol
--------------------------------------------------------------------------------
    Mg       Core       12      24.31   2.000000   1.100  0.000  1.640          
    O        Core        8      16.00   0.848190   0.730  0.000  1.360          
    O        Shell       8       0.00  -2.848190   0.730  0.000  1.360          
--------------------------------------------------------------------------------


  Species output for PDF data: 

--------------------------------------------------------------------------------
  Species    Type       bbar     sigma_inc  sigma_coh     
                       (Angs)     (Angs^2)   (Angs^2)     
--------------------------------------------------------------------------------
    Mg       Core     0.5375E-04 0.7950E-09 0.3631E-07
    O        Core     0.5803E-04 0.2987E-11 0.4232E-07
    O        Shell    0.5803E-04 0.2987E-11 0.4232E-07
--------------------------------------------------------------------------------




********************************************************************************
*  PDF Input Settings                                                          *
********************************************************************************


 Pair Distribution Function to be calculated up to  5.0000 A
 500 rbins to be used.
  wmax =    12.500000000000000      THz   

 Converting to internal frequency units:
 wmax =    78539816339744.828      rad/s 
********************************************************************************

  Lattice summation method               =    Ewald          (3-D)
                                         =    Parry          (2-D)
                                         =    Saunders et al (1-D)
  Accuracy factor for lattice sums       =   12.000


  Analytic derivatives to be used

  Time limit = Infinity

  Maximum range for interatomic potentials =    100000.000000 Angstroms

  C6 terms to be calculated in real/reciprocal space by one-centre decomposition

  General interatomic potentials :

--------------------------------------------------------------------------------
Atom  Types   Potential      Parameter       Value         Units   Cutoffs(Ang)
  1     2                                                            Min /  Max 
--------------------------------------------------------------------------------
O    s O    s Buckingham    Buckingham A     22764.000    eV        0.000  8.000
                            Buckingham rho  0.14900000    Ang       
                            Buckingham C     27.880000    eV*Ang^6  
--------------------------------------------------------------------------------
Mg   c O    s Buckingham    Buckingham A     1428.5000    eV        0.000  8.000
                            Buckingham rho  0.29450000    Ang       
                            Buckingham C     0.0000000    eV*Ang^6  
--------------------------------------------------------------------------------
O    c O    s Spring (c-s)  Spring k 2       74.920000    eV*Ang^-2 0.000  0.800
                            Spring k 4       0.0000000    eV*Ang^-4 
--------------------------------------------------------------------------------

********************************************************************************
*  Output for configuration   1                                                *
********************************************************************************


  Components of energy : 

--------------------------------------------------------------------------------
  Interatomic potentials     =          27.64720580 eV    
  Monopole - monopole (real) =         -57.50947555 eV    
  Monopole - monopole (recip)=        -134.22010884 eV    
  Monopole - monopole (total)=        -191.72958439 eV    
  Dispersion (real+recip)    =          -1.17463433 eV    
--------------------------------------------------------------------------------
  Total lattice energy       =        -165.25701292 eV    
--------------------------------------------------------------------------------
  Total lattice energy       =          -15944.7756 kJ/(mole unit cells)
--------------------------------------------------------------------------------


  Number of variables =       39

  Maximum number of calculations  =          1000
  Maximum Hessian update interval =            10
  Maximum step size               =   1.000000000
  Maximum parameter tolerance     =   0.000010000
  Maximum function  tolerance     =   0.000010000
  Maximum gradient  tolerance     =   0.001000000
  Maximum gradient  component     =   0.010000000

  Cell parameters to be optimised using strains

  Newton-Raphson optimiser to be used

  BFGS hessian update to be used

  Lower half triangular hessian to be used

  Start of bulk optimisation :

  Cycle:      0 Energy:      -165.257013  Gnorm:      0.006509  CPU:    0.015
  ** Hessian calculated **
  Cycle:      1 Energy:      -165.257110  Gnorm:      0.000007  CPU:    0.017


  **** Optimisation achieved ****


  Final energy =    -165.25710977 eV
  Final Gnorm  =       0.00000001

  Components of energy : 

--------------------------------------------------------------------------------
  Interatomic potentials     =          27.73465747 eV    
  Monopole - monopole (real) =         -57.53480374 eV    
  Monopole - monopole (recip)=        -134.27922177 eV    
  Monopole - monopole (total)=        -191.81402551 eV    
  Dispersion (real+recip)    =          -1.17774172 eV    
--------------------------------------------------------------------------------
  Total lattice energy       =        -165.25710977 eV    
--------------------------------------------------------------------------------
  Total lattice energy       =          -15944.7849 kJ/(mole unit cells)
--------------------------------------------------------------------------------

  Final fractional coordinates of atoms :

--------------------------------------------------------------------------------
   No.  Atomic        x           y          z          Radius
        Label       (Frac)      (Frac)     (Frac)       (Angs) 
--------------------------------------------------------------------------------
     1  Mg    c     0.000000    0.000000    0.000000    0.000000
     2  Mg    c     0.000000    0.500000    0.500000    0.000000
     3  Mg    c     0.500000    0.000000    0.500000    0.000000
     4  Mg    c     0.500000    0.500000    0.000000    0.000000
     5  O     c     0.500000    0.500000    0.500000    0.000000
     6  O     c     0.500000    0.000000    0.000000    0.000000
     7  O     c     0.000000    0.500000    0.000000    0.000000
     8  O     c     0.000000    0.000000    0.500000    0.000000
     9  O     s     0.500000    0.500000    0.500000    0.000000
    10  O     s     0.500000    0.000000    0.000000    0.000000
    11  O     s     0.000000    0.500000    0.000000    0.000000
    12  O     s     0.000000    0.000000    0.500000    0.000000
--------------------------------------------------------------------------------

  Final Cartesian lattice vectors (Angstroms) :

        4.198151    0.000000   -0.000000
        0.000000    4.198151   -0.000000
       -0.000000   -0.000000    4.198151


  Final cell parameters and derivatives :

--------------------------------------------------------------------------------
       a            4.198151 Angstrom     dE/de1(xx)     0.000000 eV/strain
       b            4.198151 Angstrom     dE/de2(yy)     0.000000 eV/strain
       c            4.198151 Angstrom     dE/de3(zz)     0.000000 eV/strain
       alpha       90.000000 Degrees      dE/de4(yz)    -0.000000 eV/strain
       beta        90.000000 Degrees      dE/de5(xz)     0.000000 eV/strain
       gamma       90.000000 Degrees      dE/de6(xy)    -0.000000 eV/strain
--------------------------------------------------------------------------------

  Primitive cell volume =            73.990197 Angs**3

  Density of cell =      3.618717 g/cm**3

  Non-primitive cell volume =            73.990197 Angs**3


  Final internal derivatives :

--------------------------------------------------------------------------------
   No.  Atomic          a             b             c           Radius
        Label          (eV)          (eV)          (eV)        (eV/Angs)
--------------------------------------------------------------------------------
      1 Mg    c       0.000000      0.000000      0.000000      0.000000
      2 Mg    c       0.000000     -0.000000      0.000000      0.000000
      3 Mg    c      -0.000000      0.000000      0.000000      0.000000
      4 Mg    c      -0.000000     -0.000000      0.000000      0.000000
      5 O     c      -0.000000      0.000000      0.000000      0.000000
      6 O     c      -0.000000     -0.000000     -0.000000      0.000000
      7 O     c       0.000000      0.000000     -0.000000      0.000000
      8 O     c       0.000000     -0.000000      0.000000      0.000000
      9 O     s      -0.000000     -0.000000     -0.000000      0.000000
     10 O     s      -0.000000      0.000000     -0.000000      0.000000
     11 O     s       0.000000     -0.000000     -0.000000      0.000000
     12 O     s       0.000000      0.000000     -0.000000      0.000000
--------------------------------------------------------------------------------
  Maximum abs         0.000000      0.000000      0.000000      0.000000
--------------------------------------------------------------------------------


  Born effective charge tensors : 

-------------------------------------------------------------------------------
  Atom             x           y             z
-------------------------------------------------------------------------------
    1 Mg    x       1.9739      0.0000     -0.0000
            y       0.0000      1.9739     -0.0000
            z      -0.0000     -0.0000      1.9739
-------------------------------------------------------------------------------
    2 Mg    x       1.9739      0.0000     -0.0000
            y       0.0000      1.9739     -0.0000
            z      -0.0000     -0.0000      1.9739
-------------------------------------------------------------------------------
    3 Mg    x       1.9739      0.0000     -0.0000
            y       0.0000      1.9739     -0.0000
            z      -0.0000     -0.0000      1.9739
-------------------------------------------------------------------------------
    4 Mg    x       1.9739      0.0000     -0.0000
            y       0.0000      1.9739     -0.0000
            z      -0.0000     -0.0000      1.9739
-------------------------------------------------------------------------------
    5 O     x      -1.9739     -0.0000      0.0000
            y      -0.0000     -1.9739      0.0000
            z       0.0000      0.0000     -1.9739
-------------------------------------------------------------------------------
    6 O     x      -1.9739     -0.0000      0.0000
            y      -0.0000     -1.9739     -0.0000
            z       0.0000     -0.0000     -1.9739
-------------------------------------------------------------------------------
    7 O     x      -1.9739     -0.0000      0.0000
            y      -0.0000     -1.9739      0.0000
            z       0.0000      0.0000     -1.9739
-------------------------------------------------------------------------------
    8 O     x      -1.9739     -0.0000     -0.0000
            y      -0.0000     -1.9739     -0.0000
            z      -0.0000     -0.0000     -1.9739
-------------------------------------------------------------------------------




  Elastic Constant Matrix: (Units=GPa)

-------------------------------------------------------------------------------
  Indices      1         2         3         4         5         6    
-------------------------------------------------------------------------------
       1    393.2303  164.2507  164.2507   -0.0000    0.0000   -0.0000
       2    164.2507  393.2303  164.2507    0.0000   -0.0000    0.0000
       3    164.2507  164.2507  393.2303    0.0000   -0.0000    0.0000
       4     -0.0000    0.0000    0.0000  164.2507    0.0000   -0.0000
       5      0.0000   -0.0000   -0.0000    0.0000  164.2507   -0.0000
       6     -0.0000    0.0000    0.0000   -0.0000   -0.0000  164.2507
-------------------------------------------------------------------------------


  Elastic Compliance Matrix: (Units=1/GPa)

-------------------------------------------------------------------------------
  Indices      1         2         3         4         5         6    
-------------------------------------------------------------------------------
       1    0.003373 -0.000994 -0.000994  0.000000 -0.000000  0.000000
       2   -0.000994  0.003373 -0.000994 -0.000000  0.000000 -0.000000
       3   -0.000994 -0.000994  0.003373 -0.000000  0.000000 -0.000000
       4    0.000000 -0.000000 -0.000000  0.006088 -0.000000  0.000000
       5   -0.000000  0.000000  0.000000 -0.000000  0.006088  0.000000
       6    0.000000 -0.000000 -0.000000  0.000000  0.000000  0.006088
-------------------------------------------------------------------------------

  Mechanical properties :

-------------------------------------------------------------------------------
  Convention :                    Reuss         Voigt         Hill
-------------------------------------------------------------------------------
  Bulk  Modulus (GPa)     =     240.57728     240.57728     240.57728
  Shear Modulus (GPa)     =     139.92448     144.34637     142.13542
-------------------------------------------------------------------------------
  Velocity S-wave (km/s)  =       6.21827       6.31576       6.26720
  Velocity P-wave (km/s)  =      10.86449      10.93922      10.90192
-------------------------------------------------------------------------------
  Compressibility (1/GPa) =    0.00415667
-------------------------------------------------------------------------------
  Stress axis :                     x             y             z
-------------------------------------------------------------------------------
  Youngs Moduli (GPa)     =     296.44389     296.44389     296.44389
-------------------------------------------------------------------------------
  Poissons Ratio (x)      =                     0.29463       0.29463
  Poissons Ratio (y)      =       0.29463                     0.29463
  Poissons Ratio (z)      =       0.29463       0.29463
-------------------------------------------------------------------------------


  Piezoelectric Strain Matrix: (Units=C/m**2)

-------------------------------------------------------------------------------
  Indices      1         2         3         4         5         6    
-------------------------------------------------------------------------------
       x     0.00000   0.00000   0.00000   0.00000  -0.00000   0.00000
       y    -0.00000  -0.00000  -0.00000  -0.00000   0.00000   0.00000
       z    -0.00000  -0.00000  -0.00000   0.00000   0.00000   0.00000
-------------------------------------------------------------------------------


  Piezoelectric Stress Matrix: (Units=10**-11 C/N)

-------------------------------------------------------------------------------
  Indices      1         2         3         4         5         6    
-------------------------------------------------------------------------------
       x     0.00000  -0.00000  -0.00000   0.00000  -0.00000   0.00000
       y     0.00000  -0.00000  -0.00000  -0.00000   0.00000   0.00000
       z     0.00000   0.00000  -0.00000   0.00000   0.00000   0.00000
-------------------------------------------------------------------------------


  Static dielectric constant tensor : 

-------------------------------------------------------------------------------
              x         y         z
-------------------------------------------------------------------------------
       x     8.37439   0.00000  -0.00000
       y     0.00000   8.37439   0.00000
       z    -0.00000   0.00000   8.37439
--------------------------------------------------------------------------------

  High frequency dielectric constant tensor : 

-------------------------------------------------------------------------------
              x         y         z
-------------------------------------------------------------------------------
       x     2.17284   0.00000  -0.00000
       y     0.00000   2.17284  -0.00000
       z    -0.00000  -0.00000   2.17284
-------------------------------------------------------------------------------

  Static refractive indices : 

-------------------------------------------------------------------------------
    1 =    2.89385      2 =    2.89385      3 =    2.89385
-------------------------------------------------------------------------------

  High frequency refractive indices : 

-------------------------------------------------------------------------------
    1 =    1.47406      2 =    1.47406      3 =    1.47406
-------------------------------------------------------------------------------


  Phonon Calculation : 

  Number of k points for this configuration =     1000

--------------------------------------------------------------------------------
  Start of PDF calculation
--------------------------------------------------------------------------------

  PDF peak widths being written to example43.wid                                                                                                           

  PDF information:

  Maximum radius        =  5.000 Ang
  Number density        =  0.108 Ang(^-3)
  (Sum{c_i bbar_i} )^2  =  0.3124E-08

  Mg_Mg partial c_ic_j   =    0.2500
  O_Mg partial c_ic_j   =    0.5000
  O_O partial c_ic_j   =    0.2500
  Using primitive cell parameters   4.1982   4.1982   4.1982
  Testing primitive vectors with x,y,z=-(n+1) to n, n=    2

  Partial weightings:

  partial    1 (   Mg   Mg): w_ij =   0.9249,n =   16,cicjbibj =   0.722266E-09
  partial    2 (    O   Mg): w_ij =   0.9985,n =   32,cicjbibj =   0.155956E-08
  partial    3 (    O    O): w_ij =   1.0780,n =   16,cicjbibj =   0.841870E-09

  Width output to file complete

  PDF statistics:

  Maximum width^2  was  0.4386E-02 Ang^2
  Number of pairs       448
  Angular frequency range used:
   0.777672E+13 to  0.785286E+14 rad/s 
   0.123770E+01 to  0.124982E+02 THz   

  PDF output being written to example43.pdfs
  partial PDF output   1 being written to example43_1_Mg_Mg.pdfs
  partial PDF output   2 being written to example43_2_O_Mg.pdfs
  partial PDF output   3 being written to example43_3_O_O.pdfs
--------------------------------------------------------------------------------
  End of PDF calculation
--------------------------------------------------------------------------------

--------------------------------------------------------------------------------
  Phonon properties (per mole of unit cells): Temperature =    290.000 K
--------------------------------------------------------------------------------
  Zero point energy            =        0.647369 eV
  Entropy                      =        0.000960 eV/K
                               =       92.615953 J/(mol.K)
  Helmholtz free-energy        =     -164.705511 eV
                               =   -15891.562649 kJmol-1
  Free energy (equipartition)  =     -164.826425 eV
  - T*S       (equipartition)  =       -0.169081 eV
  Uvib        (equipartition)  =        0.599767 eV
  Mean kinetic energy          =        0.414985 eV
  Heat capacity - const volume =        0.001417 eV/K
                               =      136.735410 J/(mol.K)
--------------------------------------------------------------------------------

  Phonon density of states : 

--------------------------------------------------------------------------------
 Frequency (cm-1) Density of States                                             
--------------------------------------------------------------------------------
    0.00000 |                                                              0.000
   12.74627 |                                                              0.000
   25.49255 |                                                              0.000
   38.23882 |                                                              0.001
   50.98509 |                                                              0.000
   63.73137 |                                                              0.000
   76.47764 |**                                                            0.002
   89.22391 |                                                              0.001
  101.97018 |                                                              0.001
  114.71646 |                                                              0.001
  127.46273 |***                                                           0.004
  140.20900 |*                                                             0.002
  152.95528 |***                                                           0.004
  165.70155 |**                                                            0.003
  178.44782 |****                                                          0.005
  191.19410 |********                                                      0.009
  203.94037 |**                                                            0.003
  216.68664 |********                                                      0.009
  229.43291 |*********                                                     0.010
  242.17919 |**********                                                    0.011
  254.92546 |***************                                               0.016
  267.67173 |******************                                            0.019
  280.41801 |***************                                               0.016
  293.16428 |*****************************************                     0.043
  305.91055 |***********************************                           0.037
  318.65683 |*************************                                     0.026
  331.40310 |****************************                                  0.030
  344.14937 |******************                                            0.019
  356.89565 |***************************                                   0.029
  369.64192 |************************************                          0.038
  382.38819 |*******************************************                   0.046
  395.13446 |***************************************                       0.041
  407.88074 |************************************************************  0.062
  420.62701 |***********************************************               0.049
  433.37328 |*******************************************                   0.045
  446.11956 |***************************************************           0.054
  458.86583 |*********************************                             0.035
  471.61210 |*****************************************                     0.043
  484.35838 |***********************************************               0.049
  497.10465 |***************                                               0.016
  509.85092 |************                                                  0.013
  522.59719 |*************                                                 0.014
  535.34347 |*********                                                     0.010
  548.08974 |***************                                               0.016
  560.83601 |***********                                                   0.012
  573.58229 |**************                                                0.015
  586.32856 |**************                                                0.015
  599.07483 |************                                                  0.013
  611.82111 |**********                                                    0.011
  624.56738 |*********                                                     0.010
  637.31365 |******                                                        0.007
  650.05993 |********                                                      0.009
  662.80620 |*********                                                     0.010
  675.55247 |********                                                      0.009
  688.29874 |********                                                      0.008
  701.04502 |**********                                                    0.011
  713.79129 |                                                              0.001
  726.53756 |*********                                                     0.010
  739.28384 |******                                                        0.006
  752.03011 |**                                                            0.003
  764.77638 |********                                                      0.009
  777.52266 |**                                                            0.002
  790.26893 |***                                                           0.004
  803.01520 |**                                                            0.003
--------------------------------------------------------------------------------



  Time to end of optimisation =       1.9600 seconds


  Peak dynamic memory used =       2.56 MB 


  Timing analysis for GULP :

--------------------------------------------------------------------------------
  Task / Subroutine                                          Time (Seconds)
--------------------------------------------------------------------------------
  Calculation of reciprocal space energy and derivatives          0.6302
  Calculation of real space energy and derivatives                0.8428
  Calculation of phonons                                          1.9361
  Calculation of matrix inversion                                 0.0031
  Disk read/write operations to scratch files                     0.0004
  Symmetry generation of equivalent positions                     0.0014
--------------------------------------------------------------------------------
  Total CPU time                                                  1.9601
--------------------------------------------------------------------------------


  Job Finished at 11:50.33  8th July       2020                               

