********************************************************************************
*                       GENERAL UTILITY LATTICE PROGRAM                        *
*                                 Julian Gale                                  *
*                       Curtin Institute for Computation                       *
*                    School of Molecular and Life Sciences                     *
*                    Curtin University, Western Australia                      *
********************************************************************************
* Version = 6.0.0 * Last modified =   7th July 2020                            *
********************************************************************************
*  single       - perform a single point run                                   *
*  md           - perform molecular dynamics run                               *
*  conv         - constant volume calculation                                  *
********************************************************************************
* simple example of input for a molecular dynamics run                         *
* that is designed to run quickly, rather than accurately                      *
********************************************************************************


  Job Started  at 11:35.09  8th July       2020                               

  Number of CPUs =     1

  Host name      = M-A0034725                              


  Total number of configurations input =      1

********************************************************************************
*  Input for Configuration =   1                                               *
********************************************************************************

  Formula = Mg32O32                                                     

  Number of irreducible atoms/shells =      64


  Total number atoms/shells =      64

  Dimensionality = 3               :  Bulk   



  Supercell dimensions :  x =   2  y =   2  z =   2

  Cartesian lattice vectors (Angstroms) :

        8.423972    0.000000    0.000000
        0.000000    8.423972    0.000000
        0.000000    0.000000    8.423972

  Cell parameters (Angstroms/Degrees):

  a =       8.4240    alpha =  90.0000
  b =       8.4240    beta  =  90.0000
  c =       8.4240    gamma =  90.0000

  Initial cell volume =         597.792888 Angs**3

  Temperature of configuration =   300.     K 

  Pressure of configuration =         0.000 GPa 

  Fractional coordinates of asymmetric unit :

--------------------------------------------------------------------------------
   No.  Atomic       x           y          z         Charge      Occupancy
        Label      (Frac)      (Frac)     (Frac)        (e)         (Frac)  
--------------------------------------------------------------------------------
      1 Mg    c    0.000000 *  0.000000 *  0.000000 *   2.00000    1.000000    
      2 Mg    c    0.000000 *  0.000000 *  0.500000 *   2.00000    1.000000    
      3 Mg    c    0.000000 *  0.500000 *  0.000000 *   2.00000    1.000000    
      4 Mg    c    0.000000 *  0.500000 *  0.500000 *   2.00000    1.000000    
      5 Mg    c    0.500000 *  0.000000 *  0.000000 *   2.00000    1.000000    
      6 Mg    c    0.500000 *  0.000000 *  0.500000 *   2.00000    1.000000    
      7 Mg    c    0.500000 *  0.500000 *  0.000000 *   2.00000    1.000000    
      8 Mg    c    0.500000 *  0.500000 *  0.500000 *   2.00000    1.000000    
      9 Mg    c    0.000000 *  0.250000 *  0.250000 *   2.00000    1.000000    
     10 Mg    c    0.000000 *  0.250000 *  0.750000 *   2.00000    1.000000    
     11 Mg    c    0.000000 *  0.750000 *  0.250000 *   2.00000    1.000000    
     12 Mg    c    0.000000 *  0.750000 *  0.750000 *   2.00000    1.000000    
     13 Mg    c    0.500000 *  0.250000 *  0.250000 *   2.00000    1.000000    
     14 Mg    c    0.500000 *  0.250000 *  0.750000 *   2.00000    1.000000    
     15 Mg    c    0.500000 *  0.750000 *  0.250000 *   2.00000    1.000000    
     16 Mg    c    0.500000 *  0.750000 *  0.750000 *   2.00000    1.000000    
     17 Mg    c    0.250000 *  0.000000 *  0.250000 *   2.00000    1.000000    
     18 Mg    c    0.250000 *  0.000000 *  0.750000 *   2.00000    1.000000    
     19 Mg    c    0.250000 *  0.500000 *  0.250000 *   2.00000    1.000000    
     20 Mg    c    0.250000 *  0.500000 *  0.750000 *   2.00000    1.000000    
     21 Mg    c    0.750000 *  0.000000 *  0.250000 *   2.00000    1.000000    
     22 Mg    c    0.750000 *  0.000000 *  0.750000 *   2.00000    1.000000    
     23 Mg    c    0.750000 *  0.500000 *  0.250000 *   2.00000    1.000000    
     24 Mg    c    0.750000 *  0.500000 *  0.750000 *   2.00000    1.000000    
     25 Mg    c    0.250000 *  0.250000 *  0.000000 *   2.00000    1.000000    
     26 Mg    c    0.250000 *  0.250000 *  0.500000 *   2.00000    1.000000    
     27 Mg    c    0.250000 *  0.750000 *  0.000000 *   2.00000    1.000000    
     28 Mg    c    0.250000 *  0.750000 *  0.500000 *   2.00000    1.000000    
     29 Mg    c    0.750000 *  0.250000 *  0.000000 *   2.00000    1.000000    
     30 Mg    c    0.750000 *  0.250000 *  0.500000 *   2.00000    1.000000    
     31 Mg    c    0.750000 *  0.750000 *  0.000000 *   2.00000    1.000000    
     32 Mg    c    0.750000 *  0.750000 *  0.500000 *   2.00000    1.000000    
     33 O     c    0.250000 *  0.250000 *  0.250000 *  -2.00000    1.000000    
     34 O     c    0.250000 *  0.250000 *  0.750000 *  -2.00000    1.000000    
     35 O     c    0.250000 *  0.750000 *  0.250000 *  -2.00000    1.000000    
     36 O     c    0.250000 *  0.750000 *  0.750000 *  -2.00000    1.000000    
     37 O     c    0.750000 *  0.250000 *  0.250000 *  -2.00000    1.000000    
     38 O     c    0.750000 *  0.250000 *  0.750000 *  -2.00000    1.000000    
     39 O     c    0.750000 *  0.750000 *  0.250000 *  -2.00000    1.000000    
     40 O     c    0.750000 *  0.750000 *  0.750000 *  -2.00000    1.000000    
     41 O     c    0.250000 *  0.000000 *  0.000000 *  -2.00000    1.000000    
     42 O     c    0.250000 *  0.000000 *  0.500000 *  -2.00000    1.000000    
     43 O     c    0.250000 *  0.500000 *  0.000000 *  -2.00000    1.000000    
     44 O     c    0.250000 *  0.500000 *  0.500000 *  -2.00000    1.000000    
     45 O     c    0.750000 *  0.000000 *  0.000000 *  -2.00000    1.000000    
     46 O     c    0.750000 *  0.000000 *  0.500000 *  -2.00000    1.000000    
     47 O     c    0.750000 *  0.500000 *  0.000000 *  -2.00000    1.000000    
     48 O     c    0.750000 *  0.500000 *  0.500000 *  -2.00000    1.000000    
     49 O     c    0.000000 *  0.250000 *  0.000000 *  -2.00000    1.000000    
     50 O     c    0.000000 *  0.250000 *  0.500000 *  -2.00000    1.000000    
     51 O     c    0.000000 *  0.750000 *  0.000000 *  -2.00000    1.000000    
     52 O     c    0.000000 *  0.750000 *  0.500000 *  -2.00000    1.000000    
     53 O     c    0.500000 *  0.250000 *  0.000000 *  -2.00000    1.000000    
     54 O     c    0.500000 *  0.250000 *  0.500000 *  -2.00000    1.000000    
     55 O     c    0.500000 *  0.750000 *  0.000000 *  -2.00000    1.000000    
     56 O     c    0.500000 *  0.750000 *  0.500000 *  -2.00000    1.000000    
     57 O     c    0.000000 *  0.000000 *  0.250000 *  -2.00000    1.000000    
     58 O     c    0.000000 *  0.000000 *  0.750000 *  -2.00000    1.000000    
     59 O     c    0.000000 *  0.500000 *  0.250000 *  -2.00000    1.000000    
     60 O     c    0.000000 *  0.500000 *  0.750000 *  -2.00000    1.000000    
     61 O     c    0.500000 *  0.000000 *  0.250000 *  -2.00000    1.000000    
     62 O     c    0.500000 *  0.000000 *  0.750000 *  -2.00000    1.000000    
     63 O     c    0.500000 *  0.500000 *  0.250000 *  -2.00000    1.000000    
     64 O     c    0.500000 *  0.500000 *  0.750000 *  -2.00000    1.000000    
--------------------------------------------------------------------------------



********************************************************************************
*  General input information                                                   *
********************************************************************************

  Species output for all configurations : 

--------------------------------------------------------------------------------
  Species    Type    Atomic    Atomic    Charge       Radii (Angs)     Library
                     Number     Mass       (e)     Cova   Ionic  VDW   Symbol
--------------------------------------------------------------------------------
    Mg       Core       12      24.31   2.000000   1.100  0.000  1.640          
    O        Core        8      16.00  -2.000000   0.730  0.000  1.360          
--------------------------------------------------------------------------------


  Lattice summation method               =    Ewald          (3-D)
                                         =    Parry          (2-D)
                                         =    Saunders et al (1-D)
  Accuracy factor for lattice sums       =   12.000


  Analytic derivatives to be used

  Time limit = Infinity

  Maximum range for interatomic potentials =    100000.000000 Angstroms

  General interatomic potentials :

--------------------------------------------------------------------------------
Atom  Types   Potential      Parameter       Value         Units   Cutoffs(Ang)
  1     2                                                            Min /  Max 
--------------------------------------------------------------------------------
O    c Mg   c Buckingham    Buckingham A     1295.5534    eV        0.000 12.000
                            Buckingham rho  0.30000000    Ang       
                            Buckingham C     0.0000000    eV*Ang^6  
--------------------------------------------------------------------------------
O    c O    c Buckingham    Buckingham A     22764.000    eV        0.000 12.000
                            Buckingham rho  0.14900000    Ang       
                            Buckingham C     27.880000    eV*Ang^6  
--------------------------------------------------------------------------------

********************************************************************************
*  Output for configuration   1                                                *
********************************************************************************


  Components of energy : 

--------------------------------------------------------------------------------
  Interatomic potentials     =         215.06168986 eV    
  Monopole - monopole (real) =        -910.61067466 eV    
  Monopole - monopole (recip)=        -618.86117912 eV    
  Monopole - monopole (total)=       -1529.47185377 eV    
--------------------------------------------------------------------------------
  Total lattice energy       =       -1314.41016391 eV    
--------------------------------------------------------------------------------
  Total lattice energy       =         -126820.4882 kJ/(mole unit cells)
--------------------------------------------------------------------------------

  Equations of motion will be integrated using stochastic algorithm.

********************************************************************************
*  Molecular Dynamics                                                          *
********************************************************************************

  Microcanonical ensemble (NVE) to be used

  No. of mobile ions        =                 64

  No. of degrees of freedom =                189

  Time step                 =           0.001000 ps
  Equilibration time        =           5.000000 ps
  Production time           =          20.000000 ps
  Scaling time              =           5.000000 ps
  Scaling frequency         =           0.001000 ps
  Sampling frequency        =           0.050000 ps
  Write frequency           =           0.050000 ps
  TD-Force start time       =           0.000000 ps
  TD-Field start time       =           0.000000 ps



  Molecular dynamics equilibration :

  ** Time :            0.05000 ps :
     Properties:                   Instantaneous       Averaged
       Kinetic energy    (eV) =       1.234788          1.234788
       Potential energy  (eV) =   -1313.199028      -1313.199028
       Total energy      (eV) =   -1311.964240      -1311.964240
       Temperature       (K)  =     151.630724        151.630724
       Pressure         (GPa) =       1.044949          1.044949
  ** Time :            0.10000 ps :
     Properties:                   Instantaneous       Averaged
       Kinetic energy    (eV) =       1.184448          1.209618
       Potential energy  (eV) =   -1313.149568      -1313.174298
       Total energy      (eV) =   -1311.965120      -1311.964680
       Temperature       (K)  =     145.449089        148.539906
       Pressure         (GPa) =       0.904696          0.974822
  ** Time :            0.15000 ps :
     Properties:                   Instantaneous       Averaged
       Kinetic energy    (eV) =       1.100563          1.173266
       Potential energy  (eV) =   -1313.065074      -1313.137890
       Total energy      (eV) =   -1311.964511      -1311.964623
       Temperature       (K)  =     135.148042        144.075952
       Pressure         (GPa) =       0.958513          0.969386
  ** Time :            0.20000 ps :
     Properties:                   Instantaneous       Averaged
       Kinetic energy    (eV) =       1.008465          1.132066
       Potential energy  (eV) =   -1312.972538      -1313.096552
       Total energy      (eV) =   -1311.964073      -1311.964486
       Temperature       (K)  =     123.838446        139.016575
       Pressure         (GPa) =       1.253686          1.040461
  ** Time :            0.25000 ps :
     Properties:                   Instantaneous       Averaged
       Kinetic energy    (eV) =       1.475736          1.200800
       Potential energy  (eV) =   -1313.441220      -1313.165486
       Total energy      (eV) =   -1311.965484      -1311.964686
       Temperature       (K)  =     181.218946        147.457049
       Pressure         (GPa) =       0.859078          1.004184
  ** Time :            0.30000 ps :
     Properties:                   Instantaneous       Averaged
       Kinetic energy    (eV) =       1.187583          1.198597
       Potential energy  (eV) =   -1313.151928      -1313.163226
       Total energy      (eV) =   -1311.964345      -1311.964629
       Temperature       (K)  =     145.834002        147.186541
       Pressure         (GPa) =       0.817604          0.973088
  ** Time :            0.35000 ps :
     Properties:                   Instantaneous       Averaged
       Kinetic energy    (eV) =       1.150129          1.191673
       Potential energy  (eV) =   -1313.114825      -1313.156311
       Total energy      (eV) =   -1311.964696      -1311.964638
       Temperature       (K)  =     141.234707        146.336279
       Pressure         (GPa) =       1.081502          0.988575
  ** Time :            0.40000 ps :
     Properties:                   Instantaneous       Averaged
       Kinetic energy    (eV) =       1.210044          1.193969
       Potential energy  (eV) =   -1313.174579      -1313.158595
       Total energy      (eV) =   -1311.964535      -1311.964625
       Temperature       (K)  =     148.592199        146.618269
       Pressure         (GPa) =       0.918088          0.979764
  ** Time :            0.45000 ps :
     Properties:                   Instantaneous       Averaged
       Kinetic energy    (eV) =       0.920502          1.163584
       Potential energy  (eV) =   -1312.884941      -1313.128189
       Total energy      (eV) =   -1311.964440      -1311.964605
       Temperature       (K)  =     113.036701        142.886984
       Pressure         (GPa) =       1.120856          0.995441
  ** Time :            0.50000 ps :
     Properties:                   Instantaneous       Averaged
       Kinetic energy    (eV) =       1.205258          1.167752
       Potential energy  (eV) =   -1313.170195      -1313.132390
       Total energy      (eV) =   -1311.964936      -1311.964638
       Temperature       (K)  =     148.004546        143.398740
       Pressure         (GPa) =       1.010489          0.996946
  ** Time :            0.55000 ps :
     Properties:                   Instantaneous       Averaged
       Kinetic energy    (eV) =       1.441220          1.192612
       Potential energy  (eV) =   -1313.406444      -1313.157304
       Total energy      (eV) =   -1311.965225      -1311.964691
       Temperature       (K)  =     176.980346        146.451613
       Pressure         (GPa) =       0.766863          0.976029
  ** Time :            0.60000 ps :
     Properties:                   Instantaneous       Averaged
       Kinetic energy    (eV) =       0.986542          1.175440
       Potential energy  (eV) =   -1312.950986      -1313.140110
       Total energy      (eV) =   -1311.964444      -1311.964671
       Temperature       (K)  =     121.146394        144.342845
       Pressure         (GPa) =       0.972958          0.975773
  ** Time :            0.65000 ps :
     Properties:                   Instantaneous       Averaged
       Kinetic energy    (eV) =       1.320934          1.186632
       Potential energy  (eV) =   -1313.286017      -1313.151334
       Total energy      (eV) =   -1311.965083      -1311.964702
       Temperature       (K)  =     162.209383        145.717194
       Pressure         (GPa) =       0.719746          0.956079
  ** Time :            0.70000 ps :
     Properties:                   Instantaneous       Averaged
       Kinetic energy    (eV) =       1.453971          1.205727
       Potential energy  (eV) =   -1313.418865      -1313.170443
       Total energy      (eV) =   -1311.964894      -1311.964716
       Temperature       (K)  =     178.546210        148.062124
       Pressure         (GPa) =       0.784566          0.943828
  ** Time :            0.75000 ps :
     Properties:                   Instantaneous       Averaged
       Kinetic energy    (eV) =       1.301114          1.212086
       Potential energy  (eV) =   -1313.266143      -1313.176823
       Total energy      (eV) =   -1311.965029      -1311.964737
       Temperature       (K)  =     159.775548        148.843019
       Pressure         (GPa) =       0.993286          0.947125
  ** Time :            0.80000 ps :
     Properties:                   Instantaneous       Averaged
       Kinetic energy    (eV) =       1.060130          1.202589
       Potential energy  (eV) =   -1313.024739      -1313.167318
       Total energy      (eV) =   -1311.964609      -1311.964729
       Temperature       (K)  =     130.182951        147.676764
       Pressure         (GPa) =       0.989440          0.949770
  ** Time :            0.85000 ps :
     Properties:                   Instantaneous       Averaged
       Kinetic energy    (eV) =       0.879269          1.183570
       Potential energy  (eV) =   -1312.843626      -1313.148277
       Total energy      (eV) =   -1311.964358      -1311.964707
       Temperature       (K)  =     107.973322        145.341268
       Pressure         (GPa) =       1.028713          0.954414
  ** Time :            0.90000 ps :
     Properties:                   Instantaneous       Averaged
       Kinetic energy    (eV) =       1.119990          1.180038
       Potential energy  (eV) =   -1313.084675      -1313.144744
       Total energy      (eV) =   -1311.964686      -1311.964706
       Temperature       (K)  =     137.533599        144.907509
       Pressure         (GPa) =       0.959749          0.954710
  ** Time :            0.95000 ps :
     Properties:                   Instantaneous       Averaged
       Kinetic energy    (eV) =       1.299871          1.186345
       Potential energy  (eV) =   -1313.264191      -1313.151031
       Total energy      (eV) =   -1311.964320      -1311.964686
       Temperature       (K)  =     159.622900        145.682003
       Pressure         (GPa) =       0.723905          0.942562
  ** Time :            1.00000 ps :
     Properties:                   Instantaneous       Averaged
       Kinetic energy    (eV) =       0.986908          1.176373
       Potential energy  (eV) =   -1312.951535      -1313.141056
       Total energy      (eV) =   -1311.964627      -1311.964683
       Temperature       (K)  =     121.191350        144.457470
       Pressure         (GPa) =       0.961814          0.943525
  ** Time :            1.05000 ps :
     Properties:                   Instantaneous       Averaged
       Kinetic energy    (eV) =       1.069774          1.171297
       Potential energy  (eV) =   -1313.034070      -1313.135961
       Total energy      (eV) =   -1311.964296      -1311.964664
       Temperature       (K)  =     131.367209        143.834124
       Pressure         (GPa) =       0.936151          0.943174
  ** Time :            1.10000 ps :
     Properties:                   Instantaneous       Averaged
       Kinetic energy    (eV) =       1.237270          1.174296
       Potential energy  (eV) =   -1313.202327      -1313.138978
       Total energy      (eV) =   -1311.965057      -1311.964682
       Temperature       (K)  =     151.935542        144.202371
       Pressure         (GPa) =       1.057719          0.948380
  ** Time :            1.15000 ps :
     Properties:                   Instantaneous       Averaged
       Kinetic energy    (eV) =       1.041590          1.168526
       Potential energy  (eV) =   -1313.006283      -1313.133209
       Total energy      (eV) =   -1311.964693      -1311.964682
       Temperature       (K)  =     127.906234        143.493843
       Pressure         (GPa) =       1.147619          0.957043
  ** Time :            1.20000 ps :
     Properties:                   Instantaneous       Averaged
       Kinetic energy    (eV) =       1.385181          1.177553
       Potential energy  (eV) =   -1313.350301      -1313.142254
       Total energy      (eV) =   -1311.965120      -1311.964701
       Temperature       (K)  =     170.098850        144.602385
       Pressure         (GPa) =       0.701409          0.946392
  ** Time :            1.25000 ps :
     Properties:                   Instantaneous       Averaged
       Kinetic energy    (eV) =       1.471425          1.189308
       Potential energy  (eV) =   -1313.436567      -1313.154027
       Total energy      (eV) =   -1311.965142      -1311.964718
       Temperature       (K)  =     180.689499        146.045870
       Pressure         (GPa) =       0.830841          0.941770
  ** Time :            1.30000 ps :
     Properties:                   Instantaneous       Averaged
       Kinetic energy    (eV) =       1.180230          1.188959
       Potential energy  (eV) =   -1313.144648      -1313.153666
       Total energy      (eV) =   -1311.964418      -1311.964707
       Temperature       (K)  =     144.931116        146.002994
       Pressure         (GPa) =       0.974407          0.943025
  ** Time :            1.35000 ps :
     Properties:                   Instantaneous       Averaged
       Kinetic energy    (eV) =       1.239578          1.190834
       Potential energy  (eV) =   -1313.204510      -1313.155549
       Total energy      (eV) =   -1311.964932      -1311.964715
       Temperature       (K)  =     152.218997        146.233217
       Pressure         (GPa) =       0.751248          0.935922
  ** Time :            1.40000 ps :
     Properties:                   Instantaneous       Averaged
       Kinetic energy    (eV) =       1.261091          1.193343
       Potential energy  (eV) =   -1313.225955      -1313.158064
       Total energy      (eV) =   -1311.964864      -1311.964720
       Temperature       (K)  =     154.860744        146.541343
       Pressure         (GPa) =       0.981088          0.937535
  ** Time :            1.45000 ps :
     Properties:                   Instantaneous       Averaged
       Kinetic energy    (eV) =       1.399438          1.200450
       Potential energy  (eV) =   -1313.364346      -1313.165177
       Total energy      (eV) =   -1311.964908      -1311.964727
       Temperature       (K)  =     171.849607        147.414041
       Pressure         (GPa) =       0.976358          0.938874
  ** Time :            1.50000 ps :
     Properties:                   Instantaneous       Averaged
       Kinetic energy    (eV) =       1.386374          1.206647
       Potential energy  (eV) =   -1313.351289      -1313.171380
       Total energy      (eV) =   -1311.964915      -1311.964733
       Temperature       (K)  =     170.245318        148.175084
       Pressure         (GPa) =       0.921631          0.938299
  ** Time :            1.55000 ps :
     Properties:                   Instantaneous       Averaged
       Kinetic energy    (eV) =       0.963007          1.198788
       Potential energy  (eV) =   -1312.927414      -1313.163511
       Total energy      (eV) =   -1311.964408      -1311.964723
       Temperature       (K)  =     118.256266        147.209961
       Pressure         (GPa) =       1.137531          0.944726
  ** Time :            1.60000 ps :
     Properties:                   Instantaneous       Averaged
       Kinetic energy    (eV) =       1.244243          1.200208
       Potential energy  (eV) =   -1313.208795      -1313.164926
       Total energy      (eV) =   -1311.964552      -1311.964717
       Temperature       (K)  =     152.791805        147.384393
       Pressure         (GPa) =       0.800757          0.940227
  ** Time :            1.65000 ps :
     Properties:                   Instantaneous       Averaged
       Kinetic energy    (eV) =       1.533970          1.210322
       Potential energy  (eV) =   -1313.499501      -1313.175064
       Total energy      (eV) =   -1311.965531      -1311.964742
       Temperature       (K)  =     188.369989        148.626381
       Pressure         (GPa) =       0.908841          0.939276
  ** Time :            1.70000 ps :
     Properties:                   Instantaneous       Averaged
       Kinetic energy    (eV) =       1.110919          1.207399
       Potential energy  (eV) =   -1313.075393      -1313.172133
       Total energy      (eV) =   -1311.964474      -1311.964734
       Temperature       (K)  =     136.419800        148.267364
       Pressure         (GPa) =       1.100588          0.944020
  ** Time :            1.75000 ps :
     Properties:                   Instantaneous       Averaged
       Kinetic energy    (eV) =       1.270392          1.209199
       Potential energy  (eV) =   -1313.235524      -1313.173944
       Total energy      (eV) =   -1311.965133      -1311.964746
       Temperature       (K)  =     156.002816        148.488377
       Pressure         (GPa) =       0.865405          0.941774
  ** Time :            1.80000 ps :
     Properties:                   Instantaneous       Averaged
       Kinetic energy    (eV) =       1.157277          1.207756
       Potential energy  (eV) =   -1313.122116      -1313.172504
       Total energy      (eV) =   -1311.964839      -1311.964748
       Temperature       (K)  =     142.112480        148.311269
       Pressure         (GPa) =       1.004024          0.943503
  ** Time :            1.85000 ps :
     Properties:                   Instantaneous       Averaged
       Kinetic energy    (eV) =       1.080161          1.204308
       Potential energy  (eV) =   -1313.044143      -1313.169035
       Total energy      (eV) =   -1311.963981      -1311.964727
       Temperature       (K)  =     132.642744        147.887795
       Pressure         (GPa) =       0.982158          0.944548
  ** Time :            1.90000 ps :
     Properties:                   Instantaneous       Averaged
       Kinetic energy    (eV) =       1.742714          1.218476
       Potential energy  (eV) =   -1313.708835      -1313.183240
       Total energy      (eV) =   -1311.966121      -1311.964764
       Temperature       (K)  =     214.003515        149.627682
       Pressure         (GPa) =       0.661380          0.937096
  ** Time :            1.95000 ps :
     Properties:                   Instantaneous       Averaged
       Kinetic energy    (eV) =       1.195331          1.217883
       Potential energy  (eV) =   -1313.159418      -1313.182630
       Total energy      (eV) =   -1311.964087      -1311.964747
       Temperature       (K)  =     146.785502        149.554806
       Pressure         (GPa) =       0.856940          0.935041
  ** Time :            2.00000 ps :
     Properties:                   Instantaneous       Averaged
       Kinetic energy    (eV) =       1.437754          1.223380
       Potential energy  (eV) =   -1313.403151      -1313.188143
       Total energy      (eV) =   -1311.965397      -1311.964763
       Temperature       (K)  =     176.554731        150.229804
       Pressure         (GPa) =       0.924837          0.934786
  ** Time :            2.05000 ps :
     Properties:                   Instantaneous       Averaged
       Kinetic energy    (eV) =       1.015890          1.218319
       Potential energy  (eV) =   -1312.980152      -1313.183070
       Total energy      (eV) =   -1311.964261      -1311.964751
       Temperature       (K)  =     124.750325        149.608353
       Pressure         (GPa) =       0.888165          0.933649
  ** Time :            2.10000 ps :
     Properties:                   Instantaneous       Averaged
       Kinetic energy    (eV) =       0.821221          1.208864
       Potential energy  (eV) =   -1312.785338      -1313.173600
       Total energy      (eV) =   -1311.964117      -1311.964736
       Temperature       (K)  =     100.845144        148.447325
       Pressure         (GPa) =       0.940970          0.933823
  ** Time :            2.15000 ps :
     Properties:                   Instantaneous       Averaged
       Kinetic energy    (eV) =       1.417216          1.213710
       Potential energy  (eV) =   -1313.382516      -1313.178458
       Total energy      (eV) =   -1311.965300      -1311.964749
       Temperature       (K)  =     174.032753        149.042335
       Pressure         (GPa) =       0.859508          0.932095
  ** Time :            2.20000 ps :
     Properties:                   Instantaneous       Averaged
       Kinetic energy    (eV) =       1.314429          1.215999
       Potential energy  (eV) =   -1313.279095      -1313.180746
       Total energy      (eV) =   -1311.964666      -1311.964747
       Temperature       (K)  =     161.410589        149.323431
       Pressure         (GPa) =       0.884568          0.931015
  ** Time :            2.25000 ps :
     Properties:                   Instantaneous       Averaged
       Kinetic energy    (eV) =       1.143296          1.214383
       Potential energy  (eV) =   -1313.108185      -1313.179133
       Total energy      (eV) =   -1311.964889      -1311.964750
       Temperature       (K)  =     140.395622        149.125036
       Pressure         (GPa) =       0.992706          0.932385
  ** Time :            2.30000 ps :
     Properties:                   Instantaneous       Averaged
       Kinetic energy    (eV) =       1.080981          1.211483
       Potential energy  (eV) =   -1313.045531      -1313.176229
       Total energy      (eV) =   -1311.964550      -1311.964746
       Temperature       (K)  =     132.743380        148.768913
       Pressure         (GPa) =       0.875254          0.931143
  ** Time :            2.35000 ps :
     Properties:                   Instantaneous       Averaged
       Kinetic energy    (eV) =       0.992917          1.206833
       Potential energy  (eV) =   -1312.957333      -1313.171571
       Total energy      (eV) =   -1311.964416      -1311.964739
       Temperature       (K)  =     121.929185        148.197855
       Pressure         (GPa) =       1.064202          0.933975
  ** Time :            2.40000 ps :
     Properties:                   Instantaneous       Averaged
       Kinetic energy    (eV) =       1.191198          1.206507
       Potential energy  (eV) =   -1313.156080      -1313.171249
       Total energy      (eV) =   -1311.964883      -1311.964742
       Temperature       (K)  =     146.277877        148.157855
       Pressure         (GPa) =       1.092149          0.937270
  ** Time :            2.45000 ps :
     Properties:                   Instantaneous       Averaged
       Kinetic energy    (eV) =       1.161966          1.205598
       Potential energy  (eV) =   -1313.126617      -1313.170338
       Total energy      (eV) =   -1311.964651      -1311.964740
       Temperature       (K)  =     142.688237        148.046230
       Pressure         (GPa) =       0.935479          0.937233
  ** Time :            2.50000 ps :
     Properties:                   Instantaneous       Averaged
       Kinetic energy    (eV) =       1.027019          1.202026
       Potential energy  (eV) =   -1312.991507      -1313.166761
       Total energy      (eV) =   -1311.964488      -1311.964735
       Temperature       (K)  =     126.116947        147.607645
       Pressure         (GPa) =       0.971221          0.937913
  ** Time :            2.55000 ps :
     Properties:                   Instantaneous       Averaged
       Kinetic energy    (eV) =       1.307445          1.204093
       Potential energy  (eV) =   -1313.272268      -1313.168830
       Total energy      (eV) =   -1311.964822      -1311.964736
       Temperature       (K)  =     160.552995        147.861475
       Pressure         (GPa) =       0.821685          0.935634
  ** Time :            2.60000 ps :
     Properties:                   Instantaneous       Averaged
       Kinetic energy    (eV) =       1.332844          1.206569
       Potential energy  (eV) =   -1313.297431      -1313.171303
       Total energy      (eV) =   -1311.964587      -1311.964734
       Temperature       (K)  =     163.671897        148.165522
       Pressure         (GPa) =       0.740352          0.931879
  ** Time :            2.65000 ps :
     Properties:                   Instantaneous       Averaged
       Kinetic energy    (eV) =       1.316052          1.208635
       Potential energy  (eV) =   -1313.281193      -1313.173376
       Total energy      (eV) =   -1311.965141      -1311.964741
       Temperature       (K)  =     161.609913        148.419189
       Pressure         (GPa) =       0.844450          0.930229
  ** Time :            2.70000 ps :
     Properties:                   Instantaneous       Averaged
       Kinetic energy    (eV) =       1.237566          1.209171
       Potential energy  (eV) =   -1313.202188      -1313.173910
       Total energy      (eV) =   -1311.964622      -1311.964739
       Temperature       (K)  =     151.971867        148.484980
       Pressure         (GPa) =       0.819084          0.928171
  ** Time :            2.75000 ps :
     Properties:                   Instantaneous       Averaged
       Kinetic energy    (eV) =       1.115091          1.207460
       Potential energy  (eV) =   -1313.079877      -1313.172200
       Total energy      (eV) =   -1311.964786      -1311.964740
       Temperature       (K)  =     136.932127        148.274928
       Pressure         (GPa) =       1.128150          0.931807
  ** Time :            2.80000 ps :
     Properties:                   Instantaneous       Averaged
       Kinetic energy    (eV) =       1.054033          1.204721
       Potential energy  (eV) =   -1313.018547      -1313.169456
       Total energy      (eV) =   -1311.964514      -1311.964736
       Temperature       (K)  =     129.434186        147.938486
       Pressure         (GPa) =       1.021752          0.933413
  ** Time :            2.85000 ps :
     Properties:                   Instantaneous       Averaged
       Kinetic energy    (eV) =       1.297079          1.206341
       Potential energy  (eV) =   -1313.261846      -1313.171077
       Total energy      (eV) =   -1311.964767      -1311.964736
       Temperature       (K)  =     159.280048        148.137461
       Pressure         (GPa) =       0.760049          0.930371
  ** Time :            2.90000 ps :
     Properties:                   Instantaneous       Averaged
       Kinetic energy    (eV) =       1.466734          1.210830
       Potential energy  (eV) =   -1313.431926      -1313.175575
       Total energy      (eV) =   -1311.965193      -1311.964744
       Temperature       (K)  =     180.113440        148.688771
       Pressure         (GPa) =       0.907872          0.929984
  ** Time :            2.95000 ps :
     Properties:                   Instantaneous       Averaged
       Kinetic energy    (eV) =       1.327379          1.212806
       Potential energy  (eV) =   -1313.291905      -1313.177546
       Total energy      (eV) =   -1311.964526      -1311.964741
       Temperature       (K)  =     163.000842        148.931348
       Pressure         (GPa) =       0.775781          0.927370
  ** Time :            3.00000 ps :
     Properties:                   Instantaneous       Averaged
       Kinetic energy    (eV) =       1.109274          1.211080
       Potential energy  (eV) =   -1313.074006      -1313.175821
       Total energy      (eV) =   -1311.964733      -1311.964740
       Temperature       (K)  =     136.217690        148.719454
       Pressure         (GPa) =       0.912252          0.927118
  ** Time :            3.05000 ps :
     Properties:                   Instantaneous       Averaged
       Kinetic energy    (eV) =       1.057557          1.208563
       Potential energy  (eV) =   -1313.022032      -1313.173300
       Total energy      (eV) =   -1311.964475      -1311.964736
       Temperature       (K)  =     129.866930        148.410396
       Pressure         (GPa) =       1.130232          0.930448
  ** Time :            3.10000 ps :
     Properties:                   Instantaneous       Averaged
       Kinetic energy    (eV) =       1.307600          1.210161
       Potential energy  (eV) =   -1313.272350      -1313.174897
       Total energy      (eV) =   -1311.964749      -1311.964736
       Temperature       (K)  =     160.572016        148.606551
       Pressure         (GPa) =       1.066238          0.932638
  ** Time :            3.15000 ps :
     Properties:                   Instantaneous       Averaged
       Kinetic energy    (eV) =       1.467593          1.214247
       Potential energy  (eV) =   -1313.432574      -1313.178987
       Total energy      (eV) =   -1311.964982      -1311.964740
       Temperature       (K)  =     180.218923        149.108335
       Pressure         (GPa) =       0.898935          0.932103
  ** Time :            3.20000 ps :
     Properties:                   Instantaneous       Averaged
       Kinetic energy    (eV) =       1.253764          1.214865
       Potential energy  (eV) =   -1313.218456      -1313.179604
       Total energy      (eV) =   -1311.964692      -1311.964739
       Temperature       (K)  =     153.961001        149.184158
       Pressure         (GPa) =       0.927271          0.932027
  ** Time :            3.25000 ps :
     Properties:                   Instantaneous       Averaged
       Kinetic energy    (eV) =       1.214030          1.214852
       Potential energy  (eV) =   -1313.178602      -1313.179589
       Total energy      (eV) =   -1311.964572      -1311.964737
       Temperature       (K)  =     149.081655        149.182581
       Pressure         (GPa) =       0.941651          0.932175
  ** Time :            3.30000 ps :
     Properties:                   Instantaneous       Averaged
       Kinetic energy    (eV) =       1.272203          1.215721
       Potential energy  (eV) =   -1313.236856      -1313.180456
       Total energy      (eV) =   -1311.964653      -1311.964736
       Temperature       (K)  =     156.225280        149.289288
       Pressure         (GPa) =       0.982334          0.932935
  ** Time :            3.35000 ps :
     Properties:                   Instantaneous       Averaged
       Kinetic energy    (eV) =       1.223848          1.215842
       Potential energy  (eV) =   -1313.188489      -1313.180576
       Total energy      (eV) =   -1311.964641      -1311.964734
       Temperature       (K)  =     150.287324        149.304185
       Pressure         (GPa) =       0.965034          0.933415
  ** Time :            3.40000 ps :
     Properties:                   Instantaneous       Averaged
       Kinetic energy    (eV) =       1.297919          1.217049
       Potential energy  (eV) =   -1313.262786      -1313.181785
       Total energy      (eV) =   -1311.964868      -1311.964736
       Temperature       (K)  =     159.383135        149.452404
       Pressure         (GPa) =       0.906918          0.933025
  ** Time :            3.45000 ps :
     Properties:                   Instantaneous       Averaged
       Kinetic energy    (eV) =       1.358338          1.219097
       Potential energy  (eV) =   -1313.323260      -1313.183836
       Total energy      (eV) =   -1311.964923      -1311.964739
       Temperature       (K)  =     166.802510        149.703855
       Pressure         (GPa) =       0.869318          0.932102
  ** Time :            3.50000 ps :
     Properties:                   Instantaneous       Averaged
       Kinetic energy    (eV) =       1.138600          1.217947
       Potential energy  (eV) =   -1313.102938      -1313.182680
       Total energy      (eV) =   -1311.964338      -1311.964733
       Temperature       (K)  =     139.818949        149.562642
       Pressure         (GPa) =       0.998179          0.933046
  ** Time :            3.55000 ps :
     Properties:                   Instantaneous       Averaged
       Kinetic energy    (eV) =       1.270845          1.218692
       Potential energy  (eV) =   -1313.235703      -1313.183427
       Total energy      (eV) =   -1311.964858      -1311.964735
       Temperature       (K)  =     156.058458        149.654133
       Pressure         (GPa) =       0.796866          0.931128
  ** Time :            3.60000 ps :
     Properties:                   Instantaneous       Averaged
       Kinetic energy    (eV) =       1.175170          1.218087
       Potential energy  (eV) =   -1313.139691      -1313.182819
       Total energy      (eV) =   -1311.964522      -1311.964732
       Temperature       (K)  =     144.309665        149.579904
       Pressure         (GPa) =       0.899891          0.930694
  ** Time :            3.65000 ps :
     Properties:                   Instantaneous       Averaged
       Kinetic energy    (eV) =       1.362297          1.220063
       Potential energy  (eV) =   -1313.327182      -1313.184797
       Total energy      (eV) =   -1311.964885      -1311.964734
       Temperature       (K)  =     167.288754        149.822491
       Pressure         (GPa) =       0.991545          0.931527
  ** Time :            3.70000 ps :
     Properties:                   Instantaneous       Averaged
       Kinetic energy    (eV) =       1.223724          1.220112
       Potential energy  (eV) =   -1313.188555      -1313.184848
       Total energy      (eV) =   -1311.964832      -1311.964735
       Temperature       (K)  =     150.272054        149.828566
       Pressure         (GPa) =       0.978502          0.932162
  ** Time :            3.75000 ps :
     Properties:                   Instantaneous       Averaged
       Kinetic energy    (eV) =       0.941532          1.216398
       Potential energy  (eV) =   -1312.905863      -1313.181128
       Total energy      (eV) =   -1311.964332      -1311.964730
       Temperature       (K)  =     115.619163        149.372441
       Pressure         (GPa) =       0.996229          0.933016
  ** Time :            3.80000 ps :
     Properties:                   Instantaneous       Averaged
       Kinetic energy    (eV) =       1.273143          1.217144
       Potential energy  (eV) =   -1313.238084      -1313.181877
       Total energy      (eV) =   -1311.964941      -1311.964733
       Temperature       (K)  =     156.340666        149.464128
       Pressure         (GPa) =       0.793018          0.931174
  ** Time :            3.85000 ps :
     Properties:                   Instantaneous       Averaged
       Kinetic energy    (eV) =       1.269712          1.217827
       Potential energy  (eV) =   -1313.234381      -1313.182559
       Total energy      (eV) =   -1311.964668      -1311.964732
       Temperature       (K)  =     155.919396        149.547962
       Pressure         (GPa) =       0.845789          0.930065
  ** Time :            3.90000 ps :
     Properties:                   Instantaneous       Averaged
       Kinetic energy    (eV) =       1.167868          1.217187
       Potential energy  (eV) =   -1313.132538      -1313.181918
       Total energy      (eV) =   -1311.964671      -1311.964731
       Temperature       (K)  =     143.412976        149.469309
       Pressure         (GPa) =       0.906730          0.929766
  ** Time :            3.95000 ps :
     Properties:                   Instantaneous       Averaged
       Kinetic energy    (eV) =       1.041710          1.214965
       Potential energy  (eV) =   -1313.006425      -1313.179696
       Total energy      (eV) =   -1311.964714      -1311.964731
       Temperature       (K)  =     127.921010        149.196546
       Pressure         (GPa) =       1.043220          0.931202
  ** Time :            4.00000 ps :
     Properties:                   Instantaneous       Averaged
       Kinetic energy    (eV) =       1.031100          1.212667
       Potential energy  (eV) =   -1312.995532      -1313.177394
       Total energy      (eV) =   -1311.964432      -1311.964727
       Temperature       (K)  =     126.618036        148.914314
       Pressure         (GPa) =       1.060934          0.932824
  ** Time :            4.05000 ps :
     Properties:                   Instantaneous       Averaged
       Kinetic energy    (eV) =       1.207025          1.212597
       Potential energy  (eV) =   -1313.171693      -1313.177324
       Total energy      (eV) =   -1311.964668      -1311.964726
       Temperature       (K)  =     148.221485        148.905761
       Pressure         (GPa) =       0.873140          0.932087
  ** Time :            4.10000 ps :
     Properties:                   Instantaneous       Averaged
       Kinetic energy    (eV) =       1.331009          1.214041
       Potential energy  (eV) =   -1313.296039      -1313.178772
       Total energy      (eV) =   -1311.965030      -1311.964730
       Temperature       (K)  =     163.446548        149.083087
       Pressure         (GPa) =       0.760864          0.929999
  ** Time :            4.15000 ps :
     Properties:                   Instantaneous       Averaged
       Kinetic energy    (eV) =       1.141624          1.213169
       Potential energy  (eV) =   -1313.105908      -1313.177894
       Total energy      (eV) =   -1311.964283      -1311.964725
       Temperature       (K)  =     140.190317        148.975946
       Pressure         (GPa) =       0.849520          0.929029
  ** Time :            4.20000 ps :
     Properties:                   Instantaneous       Averaged
       Kinetic energy    (eV) =       1.366042          1.214989
       Potential energy  (eV) =   -1313.331197      -1313.179719
       Total energy      (eV) =   -1311.965154      -1311.964730
       Temperature       (K)  =     167.748650        149.199430
       Pressure         (GPa) =       0.854760          0.928145
  ** Time :            4.25000 ps :
     Properties:                   Instantaneous       Averaged
       Kinetic energy    (eV) =       1.102953          1.213671
       Potential energy  (eV) =   -1313.067340      -1313.178397
       Total energy      (eV) =   -1311.964386      -1311.964726
       Temperature       (K)  =     135.441545        149.037573
       Pressure         (GPa) =       0.986770          0.928835
  ** Time :            4.30000 ps :
     Properties:                   Instantaneous       Averaged
       Kinetic energy    (eV) =       1.126114          1.212653
       Potential energy  (eV) =   -1313.090975      -1313.177380
       Total energy      (eV) =   -1311.964862      -1311.964727
       Temperature       (K)  =     138.285631        148.912550
       Pressure         (GPa) =       0.975638          0.929379
  ** Time :            4.35000 ps :
     Properties:                   Instantaneous       Averaged
       Kinetic energy    (eV) =       1.291539          1.213559
       Potential energy  (eV) =   -1313.256401      -1313.178288
       Total energy      (eV) =   -1311.964863      -1311.964729
       Temperature       (K)  =     158.599689        149.023897
       Pressure         (GPa) =       0.941354          0.929517
  ** Time :            4.40000 ps :
     Properties:                   Instantaneous       Averaged
       Kinetic energy    (eV) =       1.268234          1.214181
       Potential energy  (eV) =   -1313.232780      -1313.178908
       Total energy      (eV) =   -1311.964547      -1311.964727
       Temperature       (K)  =     155.737850        149.100191
       Pressure         (GPa) =       0.998050          0.930296
  ** Time :            4.45000 ps :
     Properties:                   Instantaneous       Averaged
       Kinetic energy    (eV) =       1.176622          1.213759
       Potential energy  (eV) =   -1313.141578      -1313.178488
       Total energy      (eV) =   -1311.964955      -1311.964729
       Temperature       (K)  =     144.488074        149.048370
       Pressure         (GPa) =       0.898716          0.929941
  ** Time :            4.50000 ps :
     Properties:                   Instantaneous       Averaged
       Kinetic energy    (eV) =       1.146039          1.213006
       Potential energy  (eV) =   -1313.110592      -1313.177734
       Total energy      (eV) =   -1311.964553      -1311.964728
       Temperature       (K)  =     140.732445        148.955971
       Pressure         (GPa) =       0.862022          0.929186
  ** Time :            4.55000 ps :
     Properties:                   Instantaneous       Averaged
       Kinetic energy    (eV) =       1.342366          1.214428
       Potential energy  (eV) =   -1313.307444      -1313.179159
       Total energy      (eV) =   -1311.965077      -1311.964731
       Temperature       (K)  =     164.841269        149.130534
       Pressure         (GPa) =       0.992641          0.929883
  ** Time :            4.60000 ps :
     Properties:                   Instantaneous       Averaged
       Kinetic energy    (eV) =       1.330063          1.215685
       Potential energy  (eV) =   -1313.295059      -1313.180419
       Total energy      (eV) =   -1311.964996      -1311.964734
       Temperature       (K)  =     163.330433        149.284881
       Pressure         (GPa) =       1.033879          0.931014
  ** Time :            4.65000 ps :
     Properties:                   Instantaneous       Averaged
       Kinetic energy    (eV) =       1.107552          1.214522
       Potential energy  (eV) =   -1313.072018      -1313.179253
       Total energy      (eV) =   -1311.964465      -1311.964731
       Temperature       (K)  =     136.006305        149.142101
       Pressure         (GPa) =       0.914752          0.930839
  ** Time :            4.70000 ps :
     Properties:                   Instantaneous       Averaged
       Kinetic energy    (eV) =       1.127911          1.213601
       Potential energy  (eV) =   -1313.092597      -1313.178332
       Total energy      (eV) =   -1311.964686      -1311.964731
       Temperature       (K)  =     138.506346        149.028954
       Pressure         (GPa) =       0.925788          0.930785
  ** Time :            4.75000 ps :
     Properties:                   Instantaneous       Averaged
       Kinetic energy    (eV) =       1.320126          1.214722
       Potential energy  (eV) =   -1313.284776      -1313.179452
       Total energy      (eV) =   -1311.964650      -1311.964730
       Temperature       (K)  =     162.110127        149.166651
       Pressure         (GPa) =       0.854436          0.929982
  ** Time :            4.80000 ps :
     Properties:                   Instantaneous       Averaged
       Kinetic energy    (eV) =       1.471025          1.217392
       Potential energy  (eV) =   -1313.436117      -1313.182126
       Total energy      (eV) =   -1311.965093      -1311.964734
       Temperature       (K)  =     180.640356        149.494502
       Pressure         (GPa) =       0.800860          0.928636
  ** Time :            4.85000 ps :
     Properties:                   Instantaneous       Averaged
       Kinetic energy    (eV) =       1.380224          1.219070
       Potential energy  (eV) =   -1313.345298      -1313.183808
       Total energy      (eV) =   -1311.965074      -1311.964737
       Temperature       (K)  =     169.490179        149.700643
       Pressure         (GPa) =       0.885578          0.928193
  ** Time :            4.90000 ps :
     Properties:                   Instantaneous       Averaged
       Kinetic energy    (eV) =       1.357727          1.220485
       Potential energy  (eV) =   -1313.322492      -1313.185223
       Total energy      (eV) =   -1311.964765      -1311.964738
       Temperature       (K)  =     166.727551        149.874387
       Pressure         (GPa) =       0.779333          0.926674
  ** Time :            4.95000 ps :
     Properties:                   Instantaneous       Averaged
       Kinetic energy    (eV) =       1.274229          1.221028
       Potential energy  (eV) =   -1313.239097      -1313.185767
       Total energy      (eV) =   -1311.964868      -1311.964739
       Temperature       (K)  =     156.474041        149.941050
       Pressure         (GPa) =       0.908970          0.926495
  ** Time :            5.00000 ps :
     Properties:                   Instantaneous       Averaged
       Kinetic energy    (eV) =       1.017936          1.218997
       Potential energy  (eV) =   -1312.982324      -1313.183733
       Total energy      (eV) =   -1311.964388      -1311.964735
       Temperature       (K)  =     125.001472        149.691654
       Pressure         (GPa) =       0.944128          0.926671

  Molecular dynamics production :

  ** Time :            0.05000 ps :
     Properties:                   Instantaneous       Averaged
       Kinetic energy    (eV) =       1.337337          1.337337
       Potential energy  (eV) =   -1313.302463      -1313.302463
       Total energy      (eV) =   -1311.965125      -1311.965125
       Temperature       (K)  =     164.223694        164.223694
       Pressure         (GPa) =       0.799151          0.799151
  ** Time :            0.10000 ps :
     Properties:                   Instantaneous       Averaged
       Kinetic energy    (eV) =       1.379686          1.358512
       Potential energy  (eV) =   -1313.345003      -1313.323733
       Total energy      (eV) =   -1311.965317      -1311.965221
       Temperature       (K)  =     169.424045        166.823870
       Pressure         (GPa) =       0.984829          0.891990
  ** Time :            0.15000 ps :
     Properties:                   Instantaneous       Averaged
       Kinetic energy    (eV) =       1.142339          1.286454
       Potential energy  (eV) =   -1313.106917      -1313.251461
       Total energy      (eV) =   -1311.964578      -1311.965007
       Temperature       (K)  =     140.278144        157.975294
       Pressure         (GPa) =       0.964208          0.916063
  ** Time :            0.20000 ps :
     Properties:                   Instantaneous       Averaged
       Kinetic energy    (eV) =       1.174330          1.258423
       Potential energy  (eV) =   -1313.139414      -1313.223449
       Total energy      (eV) =   -1311.965084      -1311.965026
       Temperature       (K)  =     144.206617        154.533125
       Pressure         (GPa) =       0.888874          0.909265
  ** Time :            0.25000 ps :
     Properties:                   Instantaneous       Averaged
       Kinetic energy    (eV) =       0.970821          1.200903
       Potential energy  (eV) =   -1312.934991      -1313.165758
       Total energy      (eV) =   -1311.964171      -1311.964855
       Temperature       (K)  =     119.215826        147.469665
       Pressure         (GPa) =       1.009858          0.929384
  ** Time :            0.30000 ps :
     Properties:                   Instantaneous       Averaged
       Kinetic energy    (eV) =       1.375246          1.229960
       Potential energy  (eV) =   -1313.340459      -1313.194875
       Total energy      (eV) =   -1311.965213      -1311.964915
       Temperature       (K)  =     168.878877        151.037867
       Pressure         (GPa) =       0.857623          0.917424
  ** Time :            0.35000 ps :
     Properties:                   Instantaneous       Averaged
       Kinetic energy    (eV) =       1.188567          1.224047
       Potential energy  (eV) =   -1313.153250      -1313.188928
       Total energy      (eV) =   -1311.964683      -1311.964882
       Temperature       (K)  =     145.954907        150.311730
       Pressure         (GPa) =       0.908663          0.916172
  ** Time :            0.40000 ps :
     Properties:                   Instantaneous       Averaged
       Kinetic energy    (eV) =       1.003554          1.196485
       Potential energy  (eV) =   -1312.968035      -1313.161317
       Total energy      (eV) =   -1311.964480      -1311.964831
       Temperature       (K)  =     123.235492        146.927200
       Pressure         (GPa) =       0.932559          0.918221
  ** Time :            0.45000 ps :
     Properties:                   Instantaneous       Averaged
       Kinetic energy    (eV) =       1.273169          1.205006
       Potential energy  (eV) =   -1313.237956      -1313.169832
       Total energy      (eV) =   -1311.964786      -1311.964826
       Temperature       (K)  =     156.343933        147.973504
       Pressure         (GPa) =       0.848164          0.910436
  ** Time :            0.50000 ps :
     Properties:                   Instantaneous       Averaged
       Kinetic energy    (eV) =       1.165080          1.201013
       Potential energy  (eV) =   -1313.129532      -1313.165802
       Total energy      (eV) =   -1311.964452      -1311.964789
       Temperature       (K)  =     143.070646        147.483218
       Pressure         (GPa) =       0.898681          0.909261
  ** Time :            0.55000 ps :
     Properties:                   Instantaneous       Averaged
       Kinetic energy    (eV) =       1.231912          1.203822
       Potential energy  (eV) =   -1313.196704      -1313.168611
       Total energy      (eV) =   -1311.964792      -1311.964789
       Temperature       (K)  =     151.277520        147.828155
       Pressure         (GPa) =       0.807711          0.900029
  ** Time :            0.60000 ps :
     Properties:                   Instantaneous       Averaged
       Kinetic energy    (eV) =       1.356412          1.216538
       Potential energy  (eV) =   -1313.321685      -1313.181367
       Total energy      (eV) =   -1311.965273      -1311.964830
       Temperature       (K)  =     166.565989        149.389641
       Pressure         (GPa) =       0.756188          0.888042
  ** Time :            0.65000 ps :
     Properties:                   Instantaneous       Averaged
       Kinetic energy    (eV) =       1.112480          1.208533
       Potential energy  (eV) =   -1313.077062      -1313.173344
       Total energy      (eV) =   -1311.964582      -1311.964810
       Temperature       (K)  =     136.611466        148.406704
       Pressure         (GPa) =       1.008392          0.897300
  ** Time :            0.70000 ps :
     Properties:                   Instantaneous       Averaged
       Kinetic energy    (eV) =       1.230603          1.210110
       Potential energy  (eV) =   -1313.195624      -1313.174935
       Total energy      (eV) =   -1311.965022      -1311.964826
       Temperature       (K)  =     151.116766        148.600280
       Pressure         (GPa) =       0.972527          0.902673
  ** Time :            0.75000 ps :
     Properties:                   Instantaneous       Averaged
       Kinetic energy    (eV) =       1.128655          1.204679
       Potential energy  (eV) =   -1313.093392      -1313.169499
       Total energy      (eV) =   -1311.964737      -1311.964820
       Temperature       (K)  =     138.597727        147.933443
       Pressure         (GPa) =       0.828383          0.897721
  ** Time :            0.80000 ps :
     Properties:                   Instantaneous       Averaged
       Kinetic energy    (eV) =       1.114032          1.199014
       Potential energy  (eV) =   -1313.078588      -1313.163817
       Total energy      (eV) =   -1311.964556      -1311.964803
       Temperature       (K)  =     136.802039        147.237731
       Pressure         (GPa) =       0.916801          0.898913
  ** Time :            0.85000 ps :
     Properties:                   Instantaneous       Averaged
       Kinetic energy    (eV) =       1.332034          1.206839
       Potential energy  (eV) =   -1313.297082      -1313.171656
       Total energy      (eV) =   -1311.965049      -1311.964818
       Temperature       (K)  =     163.572421        148.198595
       Pressure         (GPa) =       0.896999          0.898801
  ** Time :            0.90000 ps :
     Properties:                   Instantaneous       Averaged
       Kinetic energy    (eV) =       0.999622          1.195327
       Potential energy  (eV) =   -1312.964047      -1313.160122
       Total energy      (eV) =   -1311.964425      -1311.964796
       Temperature       (K)  =     122.752596        146.784928
       Pressure         (GPa) =       1.009614          0.904957
  ** Time :            0.95000 ps :
     Properties:                   Instantaneous       Averaged
       Kinetic energy    (eV) =       1.137501          1.192283
       Potential energy  (eV) =   -1313.102295      -1313.157079
       Total energy      (eV) =   -1311.964793      -1311.964796
       Temperature       (K)  =     139.684030        146.411197
       Pressure         (GPa) =       0.907682          0.905100
  ** Time :            1.00000 ps :
     Properties:                   Instantaneous       Averaged
       Kinetic energy    (eV) =       1.296640          1.197501
       Potential energy  (eV) =   -1313.261517      -1313.162301
       Total energy      (eV) =   -1311.964878      -1311.964800
       Temperature       (K)  =     159.226064        147.051940
       Pressure         (GPa) =       0.963510          0.908021
  ** Time :            1.05000 ps :
     Properties:                   Instantaneous       Averaged
       Kinetic energy    (eV) =       1.136577          1.194600
       Potential energy  (eV) =   -1313.100776      -1313.159371
       Total energy      (eV) =   -1311.964199      -1311.964771
       Temperature       (K)  =     139.570531        146.695682
       Pressure         (GPa) =       1.069897          0.915729
  ** Time :            1.10000 ps :
     Properties:                   Instantaneous       Averaged
       Kinetic energy    (eV) =       1.260861          1.197612
       Potential energy  (eV) =   -1313.225784      -1313.162390
       Total energy      (eV) =   -1311.964923      -1311.964778
       Temperature       (K)  =     154.832487        147.065537
       Pressure         (GPa) =       0.903114          0.915156
  ** Time :            1.15000 ps :
     Properties:                   Instantaneous       Averaged
       Kinetic energy    (eV) =       1.170224          1.196421
       Potential energy  (eV) =   -1313.134637      -1313.161183
       Total energy      (eV) =   -1311.964413      -1311.964762
       Temperature       (K)  =     143.702294        146.919309
       Pressure         (GPa) =       0.913226          0.915072
  ** Time :            1.20000 ps :
     Properties:                   Instantaneous       Averaged
       Kinetic energy    (eV) =       1.340686          1.202432
       Potential energy  (eV) =   -1313.305609      -1313.167201
       Total energy      (eV) =   -1311.964923      -1311.964769
       Temperature       (K)  =     164.634902        147.657459
       Pressure         (GPa) =       0.928731          0.915641
  ** Time :            1.25000 ps :
     Properties:                   Instantaneous       Averaged
       Kinetic energy    (eV) =       1.440722          1.211964
       Potential energy  (eV) =   -1313.405869      -1313.176748
       Total energy      (eV) =   -1311.965147      -1311.964784
       Temperature       (K)  =     176.919190        148.827928
       Pressure         (GPa) =       0.879822          0.914208
  ** Time :            1.30000 ps :
     Properties:                   Instantaneous       Averaged
       Kinetic energy    (eV) =       1.251596          1.213488
       Potential energy  (eV) =   -1313.216292      -1313.178269
       Total energy      (eV) =   -1311.964696      -1311.964781
       Temperature       (K)  =     153.694750        149.015114
       Pressure         (GPa) =       0.908094          0.913973
  ** Time :            1.35000 ps :
     Properties:                   Instantaneous       Averaged
       Kinetic energy    (eV) =       1.316533          1.217304
       Potential energy  (eV) =   -1313.281615      -1313.182096
       Total energy      (eV) =   -1311.965082      -1311.964792
       Temperature       (K)  =     161.668918        149.483773
       Pressure         (GPa) =       0.955386          0.915507
  ** Time :            1.40000 ps :
     Properties:                   Instantaneous       Averaged
       Kinetic energy    (eV) =       1.345994          1.221900
       Potential energy  (eV) =   -1313.310732      -1313.186690
       Total energy      (eV) =   -1311.964738      -1311.964790
       Temperature       (K)  =     165.286733        150.048165
       Pressure         (GPa) =       0.954627          0.916904
  ** Time :            1.45000 ps :
     Properties:                   Instantaneous       Averaged
       Kinetic energy    (eV) =       1.328123          1.225563
       Potential energy  (eV) =   -1313.293151      -1313.190361
       Total energy      (eV) =   -1311.965029      -1311.964798
       Temperature       (K)  =     163.092132        150.497957
       Pressure         (GPa) =       0.941663          0.917758
  ** Time :            1.50000 ps :
     Properties:                   Instantaneous       Averaged
       Kinetic energy    (eV) =       1.336256          1.229253
       Potential energy  (eV) =   -1313.301322      -1313.194060
       Total energy      (eV) =   -1311.965066      -1311.964807
       Temperature       (K)  =     164.090852        150.951053
       Pressure         (GPa) =       0.873286          0.916275
  ** Time :            1.55000 ps :
     Properties:                   Instantaneous       Averaged
       Kinetic energy    (eV) =       1.192100          1.228055
       Potential energy  (eV) =   -1313.156546      -1313.192850
       Total energy      (eV) =   -1311.964446      -1311.964795
       Temperature       (K)  =     146.388705        150.803881
       Pressure         (GPa) =       0.987371          0.918569
  ** Time :            1.60000 ps :
     Properties:                   Instantaneous       Averaged
       Kinetic energy    (eV) =       1.158785          1.225890
       Potential energy  (eV) =   -1313.123632      -1313.190687
       Total energy      (eV) =   -1311.964847      -1311.964797
       Temperature       (K)  =     142.297643        150.538061
       Pressure         (GPa) =       1.150171          0.925806
  ** Time :            1.65000 ps :
     Properties:                   Instantaneous       Averaged
       Kinetic energy    (eV) =       1.092737          1.221855
       Potential energy  (eV) =   -1313.057053      -1313.186637
       Total energy      (eV) =   -1311.964316      -1311.964782
       Temperature       (K)  =     134.187022        150.042575
       Pressure         (GPa) =       0.826351          0.922793
  ** Time :            1.70000 ps :
     Properties:                   Instantaneous       Averaged
       Kinetic energy    (eV) =       1.242484          1.222462
       Potential energy  (eV) =   -1313.207430      -1313.187249
       Total energy      (eV) =   -1311.964947      -1311.964787
       Temperature       (K)  =     152.575756        150.117080
       Pressure         (GPa) =       0.923093          0.922801
  ** Time :            1.75000 ps :
     Properties:                   Instantaneous       Averaged
       Kinetic energy    (eV) =       1.323524          1.225349
       Potential energy  (eV) =   -1313.288234      -1313.190134
       Total energy      (eV) =   -1311.964710      -1311.964785
       Temperature       (K)  =     162.527447        150.471662
       Pressure         (GPa) =       1.017656          0.925512
  ** Time :            1.80000 ps :
     Properties:                   Instantaneous       Averaged
       Kinetic energy    (eV) =       1.293975          1.227255
       Potential energy  (eV) =   -1313.258644      -1313.192037
       Total energy      (eV) =   -1311.964669      -1311.964782
       Temperature       (K)  =     158.898877        150.705751
       Pressure         (GPa) =       0.913501          0.925178
  ** Time :            1.85000 ps :
     Properties:                   Instantaneous       Averaged
       Kinetic energy    (eV) =       1.074022          1.223114
       Potential energy  (eV) =   -1313.038639      -1313.187891
       Total energy      (eV) =   -1311.964617      -1311.964777
       Temperature       (K)  =     131.888873        150.197187
       Pressure         (GPa) =       0.948224          0.925801
  ** Time :            1.90000 ps :
     Properties:                   Instantaneous       Averaged
       Kinetic energy    (eV) =       1.049729          1.218551
       Potential energy  (eV) =   -1313.014093      -1313.183318
       Total energy      (eV) =   -1311.964364      -1311.964766
       Temperature       (K)  =     128.905700        149.636885
       Pressure         (GPa) =       1.024229          0.928391
  ** Time :            1.95000 ps :
     Properties:                   Instantaneous       Averaged
       Kinetic energy    (eV) =       1.250508          1.219371
       Potential energy  (eV) =   -1313.215352      -1313.184139
       Total energy      (eV) =   -1311.964845      -1311.964768
       Temperature       (K)  =     153.561096        149.737505
       Pressure         (GPa) =       0.969977          0.929457
  ** Time :            2.00000 ps :
     Properties:                   Instantaneous       Averaged
       Kinetic energy    (eV) =       1.247542          1.220075
       Potential energy  (eV) =   -1313.212274      -1313.184842
       Total energy      (eV) =   -1311.964733      -1311.964768
       Temperature       (K)  =     153.196891        149.823990
       Pressure         (GPa) =       0.859086          0.927698
  ** Time :            2.05000 ps :
     Properties:                   Instantaneous       Averaged
       Kinetic energy    (eV) =       1.220837          1.220094
       Potential energy  (eV) =   -1313.185709      -1313.184864
       Total energy      (eV) =   -1311.964872      -1311.964770
       Temperature       (K)  =     149.917577        149.826273
       Pressure         (GPa) =       0.790189          0.924344
  ** Time :            2.10000 ps :
     Properties:                   Instantaneous       Averaged
       Kinetic energy    (eV) =       1.167623          1.218844
       Potential energy  (eV) =   -1313.132307      -1313.183612
       Total energy      (eV) =   -1311.964683      -1311.964768
       Temperature       (K)  =     143.382950        149.672860
       Pressure         (GPa) =       0.906473          0.923919
  ** Time :            2.15000 ps :
     Properties:                   Instantaneous       Averaged
       Kinetic energy    (eV) =       1.140357          1.217019
       Potential energy  (eV) =   -1313.104824      -1313.181780
       Total energy      (eV) =   -1311.964467      -1311.964761
       Temperature       (K)  =     140.034650        149.448716
       Pressure         (GPa) =       0.968759          0.924961
  ** Time :            2.20000 ps :
     Properties:                   Instantaneous       Averaged
       Kinetic energy    (eV) =       1.270553          1.218236
       Potential energy  (eV) =   -1313.235525      -1313.183001
       Total energy      (eV) =   -1311.964972      -1311.964766
       Temperature       (K)  =     156.022700        149.598124
       Pressure         (GPa) =       0.932317          0.925129
  ** Time :            2.25000 ps :
     Properties:                   Instantaneous       Averaged
       Kinetic energy    (eV) =       1.136670          1.216423
       Potential energy  (eV) =   -1313.101394      -1313.181188
       Total energy      (eV) =   -1311.964724      -1311.964765
       Temperature       (K)  =     139.581988        149.375544
       Pressure         (GPa) =       0.996942          0.926725
  ** Time :            2.30000 ps :
     Properties:                   Instantaneous       Averaged
       Kinetic energy    (eV) =       1.100755          1.213909
       Potential energy  (eV) =   -1313.065338      -1313.178669
       Total energy      (eV) =   -1311.964582      -1311.964761
       Temperature       (K)  =     135.171661        149.066764
       Pressure         (GPa) =       0.970997          0.927687
  ** Time :            2.35000 ps :
     Properties:                   Instantaneous       Averaged
       Kinetic energy    (eV) =       1.195520          1.213517
       Potential energy  (eV) =   -1313.160280      -1313.178278
       Total energy      (eV) =   -1311.964759      -1311.964761
       Temperature       (K)  =     146.808726        149.018720
       Pressure         (GPa) =       0.927517          0.927683
  ** Time :            2.40000 ps :
     Properties:                   Instantaneous       Averaged
       Kinetic energy    (eV) =       1.083334          1.210805
       Potential energy  (eV) =   -1313.047948      -1313.175563
       Total energy      (eV) =   -1311.964615      -1311.964758
       Temperature       (K)  =     133.032299        148.685670
       Pressure         (GPa) =       0.882630          0.926745
  ** Time :            2.45000 ps :
     Properties:                   Instantaneous       Averaged
       Kinetic energy    (eV) =       1.270791          1.212029
       Potential energy  (eV) =   -1313.235492      -1313.176786
       Total energy      (eV) =   -1311.964701      -1311.964757
       Temperature       (K)  =     156.051875        148.836001
       Pressure         (GPa) =       0.874785          0.925684
  ** Time :            2.50000 ps :
     Properties:                   Instantaneous       Averaged
       Kinetic energy    (eV) =       1.317858          1.214146
       Potential energy  (eV) =   -1313.282782      -1313.178906
       Total energy      (eV) =   -1311.964924      -1311.964760
       Temperature       (K)  =     161.831637        149.095913
       Pressure         (GPa) =       0.992932          0.927029
  ** Time :            2.55000 ps :
     Properties:                   Instantaneous       Averaged
       Kinetic energy    (eV) =       1.179839          1.213473
       Potential energy  (eV) =   -1313.144346      -1313.178228
       Total energy      (eV) =   -1311.964508      -1311.964755
       Temperature       (K)  =     144.883045        149.013308
       Pressure         (GPa) =       0.955403          0.927586
  ** Time :            2.60000 ps :
     Properties:                   Instantaneous       Averaged
       Kinetic energy    (eV) =       1.177972          1.212791
       Potential energy  (eV) =   -1313.142799      -1313.177547
       Total energy      (eV) =   -1311.964827      -1311.964756
       Temperature       (K)  =     144.653811        148.929472
       Pressure         (GPa) =       0.933984          0.927709
  ** Time :            2.65000 ps :
     Properties:                   Instantaneous       Averaged
       Kinetic energy    (eV) =       1.146158          1.211533
       Potential energy  (eV) =   -1313.110689      -1313.176286
       Total energy      (eV) =   -1311.964531      -1311.964752
       Temperature       (K)  =     140.747100        148.775087
       Pressure         (GPa) =       1.098254          0.930927
  ** Time :            2.70000 ps :
     Properties:                   Instantaneous       Averaged
       Kinetic energy    (eV) =       1.470988          1.216338
       Potential energy  (eV) =   -1313.436033      -1313.181096
       Total energy      (eV) =   -1311.965045      -1311.964758
       Temperature       (K)  =     180.635854        149.365101
       Pressure         (GPa) =       0.872927          0.929852
  ** Time :            2.75000 ps :
     Properties:                   Instantaneous       Averaged
       Kinetic energy    (eV) =       1.348469          1.218740
       Potential energy  (eV) =   -1313.313411      -1313.183501
       Total energy      (eV) =   -1311.964943      -1311.964761
       Temperature       (K)  =     165.590595        149.660110
       Pressure         (GPa) =       0.892582          0.929175
  ** Time :            2.80000 ps :
     Properties:                   Instantaneous       Averaged
       Kinetic energy    (eV) =       1.166963          1.217816
       Potential energy  (eV) =   -1313.131574      -1313.182574
       Total energy      (eV) =   -1311.964611      -1311.964758
       Temperature       (K)  =     143.301945        149.546572
       Pressure         (GPa) =       0.973890          0.929973
  ** Time :            2.85000 ps :
     Properties:                   Instantaneous       Averaged
       Kinetic energy    (eV) =       1.191243          1.217350
       Potential energy  (eV) =   -1313.155874      -1313.182106
       Total energy      (eV) =   -1311.964632      -1311.964756
       Temperature       (K)  =     146.283421        149.489323
       Pressure         (GPa) =       1.059244          0.932241
  ** Time :            2.90000 ps :
     Properties:                   Instantaneous       Averaged
       Kinetic energy    (eV) =       1.318681          1.219097
       Potential energy  (eV) =   -1313.283613      -1313.183856
       Total energy      (eV) =   -1311.964932      -1311.964759
       Temperature       (K)  =     161.932693        149.703864
       Pressure         (GPa) =       0.957637          0.932679
  ** Time :            2.95000 ps :
     Properties:                   Instantaneous       Averaged
       Kinetic energy    (eV) =       1.280463          1.220137
       Potential energy  (eV) =   -1313.245352      -1313.184898
       Total energy      (eV) =   -1311.964890      -1311.964761
       Temperature       (K)  =     157.239548        149.831588
       Pressure         (GPa) =       0.981331          0.933504
  ** Time :            3.00000 ps :
     Properties:                   Instantaneous       Averaged
       Kinetic energy    (eV) =       1.279825          1.221132
[...]
     Properties:                   Instantaneous       Averaged
       Kinetic energy    (eV) =       1.144388          1.222079
       Potential energy  (eV) =   -1313.109353      -1313.186871
       Total energy      (eV) =   -1311.964965      -1311.964793
       Temperature       (K)  =     140.529686        150.070052
       Pressure         (GPa) =       0.888113          0.916200
  ** Time :           17.90000 ps :
     Properties:                   Instantaneous       Averaged
       Kinetic energy    (eV) =       1.227374          1.222093
       Potential energy  (eV) =   -1313.191899      -1313.186885
       Total energy      (eV) =   -1311.964525      -1311.964792
       Temperature       (K)  =     150.720341        150.071868
       Pressure         (GPa) =       0.840927          0.915989
  ** Time :           17.95000 ps :
     Properties:                   Instantaneous       Averaged
       Kinetic energy    (eV) =       1.204182          1.222044
       Potential energy  (eV) =   -1313.168977      -1313.186836
       Total energy      (eV) =   -1311.964795      -1311.964792
       Temperature       (K)  =     147.872353        150.065741
       Pressure         (GPa) =       0.975462          0.916155
  ** Time :           18.00000 ps :
     Properties:                   Instantaneous       Averaged
       Kinetic energy    (eV) =       1.150490          1.221845
       Potential energy  (eV) =   -1313.115401      -1313.186637
       Total energy      (eV) =   -1311.964911      -1311.964792
       Temperature       (K)  =     141.279033        150.041334
       Pressure         (GPa) =       0.923939          0.916177
  ** Time :           18.05000 ps :
     Properties:                   Instantaneous       Averaged
       Kinetic energy    (eV) =       1.128480          1.221586
       Potential energy  (eV) =   -1313.092711      -1313.186377
       Total energy      (eV) =   -1311.964231      -1311.964791
       Temperature       (K)  =     138.576211        150.009574
       Pressure         (GPa) =       0.817057          0.915902
  ** Time :           18.10000 ps :
     Properties:                   Instantaneous       Averaged
       Kinetic energy    (eV) =       1.381826          1.222029
       Potential energy  (eV) =   -1313.347260      -1313.186821
       Total energy      (eV) =   -1311.965434      -1311.964793
       Temperature       (K)  =     169.686912        150.063932
       Pressure         (GPa) =       0.892288          0.915837
  ** Time :           18.15000 ps :
     Properties:                   Instantaneous       Averaged
       Kinetic energy    (eV) =       1.055308          1.221570
       Potential energy  (eV) =   -1313.019559      -1313.186361
       Total energy      (eV) =   -1311.964251      -1311.964791
       Temperature       (K)  =     129.590788        150.007532
       Pressure         (GPa) =       0.932971          0.915884
  ** Time :           18.20000 ps :
     Properties:                   Instantaneous       Averaged
       Kinetic energy    (eV) =       1.266983          1.221694
       Potential energy  (eV) =   -1313.232233      -1313.186487
       Total energy      (eV) =   -1311.965250      -1311.964792
       Temperature       (K)  =     155.584228        150.022853
       Pressure         (GPa) =       0.841144          0.915679
  ** Time :           18.25000 ps :
     Properties:                   Instantaneous       Averaged
       Kinetic energy    (eV) =       1.276162          1.221844
       Potential energy  (eV) =   -1313.241019      -1313.186636
       Total energy      (eV) =   -1311.964857      -1311.964793
       Temperature       (K)  =     156.711377        150.041177
       Pressure         (GPa) =       1.000111          0.915910
  ** Time :           18.30000 ps :
     Properties:                   Instantaneous       Averaged
       Kinetic energy    (eV) =       1.228072          1.221861
       Potential energy  (eV) =   -1313.192665      -1313.186653
       Total energy      (eV) =   -1311.964593      -1311.964792
       Temperature       (K)  =     150.805971        150.043267
       Pressure         (GPa) =       0.881782          0.915817
  ** Time :           18.35000 ps :
     Properties:                   Instantaneous       Averaged
       Kinetic energy    (eV) =       1.203442          1.221810
       Potential energy  (eV) =   -1313.168403      -1313.186603
       Total energy      (eV) =   -1311.964961      -1311.964792
       Temperature       (K)  =     147.781505        150.037104
       Pressure         (GPa) =       0.779334          0.915445
  ** Time :           18.40000 ps :
     Properties:                   Instantaneous       Averaged
       Kinetic energy    (eV) =       1.144257          1.221600
       Potential energy  (eV) =   -1313.108480      -1313.186391
       Total energy      (eV) =   -1311.964223      -1311.964791
       Temperature       (K)  =     140.513580        150.011225
       Pressure         (GPa) =       0.902098          0.915409
  ** Time :           18.45000 ps :
     Properties:                   Instantaneous       Averaged
       Kinetic energy    (eV) =       1.429515          1.222163
       Potential energy  (eV) =   -1313.394690      -1313.186955
       Total energy      (eV) =   -1311.965175      -1311.964792
       Temperature       (K)  =     175.543006        150.080417
       Pressure         (GPa) =       0.979189          0.915582
  ** Time :           18.50000 ps :
     Properties:                   Instantaneous       Averaged
       Kinetic energy    (eV) =       1.170655          1.222024
       Potential energy  (eV) =   -1313.135194      -1313.186815
       Total energy      (eV) =   -1311.964539      -1311.964791
       Temperature       (K)  =     143.755274        150.063322
       Pressure         (GPa) =       0.954085          0.915686
  ** Time :           18.55000 ps :
     Properties:                   Instantaneous       Averaged
       Kinetic energy    (eV) =       1.035701          1.221522
       Potential energy  (eV) =   -1313.000158      -1313.186312
       Total energy      (eV) =   -1311.964457      -1311.964790
       Temperature       (K)  =     127.183039        150.001650
       Pressure         (GPa) =       1.035673          0.916009
  ** Time :           18.60000 ps :
     Properties:                   Instantaneous       Averaged
       Kinetic energy    (eV) =       1.272208          1.221658
       Potential energy  (eV) =   -1313.236982      -1313.186448
       Total energy      (eV) =   -1311.964774      -1311.964790
       Temperature       (K)  =     156.225868        150.018382
       Pressure         (GPa) =       0.962415          0.916134
  ** Time :           18.65000 ps :
     Properties:                   Instantaneous       Averaged
       Kinetic energy    (eV) =       1.390630          1.222111
       Potential energy  (eV) =   -1313.355535      -1313.186902
       Total energy      (eV) =   -1311.964905      -1311.964791
       Temperature       (K)  =     170.767972        150.074010
       Pressure         (GPa) =       0.845915          0.915946
  ** Time :           18.70000 ps :
     Properties:                   Instantaneous       Averaged
       Kinetic energy    (eV) =       1.185028          1.222012
       Potential energy  (eV) =   -1313.149527      -1313.186802
       Total energy      (eV) =   -1311.964499      -1311.964790
       Temperature       (K)  =     145.520323        150.061835
       Pressure         (GPa) =       0.932613          0.915990
  ** Time :           18.75000 ps :
     Properties:                   Instantaneous       Averaged
       Kinetic energy    (eV) =       1.379464          1.222432
       Potential energy  (eV) =   -1313.344682      -1313.187223
       Total energy      (eV) =   -1311.965217      -1311.964791
       Temperature       (K)  =     169.396870        150.113395
       Pressure         (GPa) =       0.834006          0.915772
  ** Time :           18.80000 ps :
     Properties:                   Instantaneous       Averaged
       Kinetic energy    (eV) =       1.233575          1.222461
       Potential energy  (eV) =   -1313.198109      -1313.187252
       Total energy      (eV) =   -1311.964535      -1311.964790
       Temperature       (K)  =     151.481725        150.117034
       Pressure         (GPa) =       0.902848          0.915737
  ** Time :           18.85000 ps :
     Properties:                   Instantaneous       Averaged
       Kinetic energy    (eV) =       1.261103          1.222564
       Potential energy  (eV) =   -1313.226232      -1313.187355
       Total energy      (eV) =   -1311.965128      -1311.964791
       Temperature       (K)  =     154.862256        150.129621
       Pressure         (GPa) =       1.052593          0.916100
  ** Time :           18.90000 ps :
     Properties:                   Instantaneous       Averaged
       Kinetic energy    (eV) =       1.101927          1.222245
       Potential energy  (eV) =   -1313.066449      -1313.187035
       Total energy      (eV) =   -1311.964522      -1311.964790
       Temperature       (K)  =     135.315489        150.090430
       Pressure         (GPa) =       0.999689          0.916321
  ** Time :           18.95000 ps :
     Properties:                   Instantaneous       Averaged
       Kinetic energy    (eV) =       1.304581          1.222462
       Potential energy  (eV) =   -1313.269452      -1313.187253
       Total energy      (eV) =   -1311.964872      -1311.964791
       Temperature       (K)  =     160.201228        150.117108
       Pressure         (GPa) =       0.842851          0.916127
  ** Time :           19.00000 ps :
     Properties:                   Instantaneous       Averaged
       Kinetic energy    (eV) =       1.419704          1.222981
       Potential energy  (eV) =   -1313.384647      -1313.187772
       Total energy      (eV) =   -1311.964943      -1311.964791
       Temperature       (K)  =     174.338190        150.180847
       Pressure         (GPa) =       0.882206          0.916038
  ** Time :           19.05000 ps :
     Properties:                   Instantaneous       Averaged
       Kinetic energy    (eV) =       1.198311          1.222916
       Potential energy  (eV) =   -1313.162746      -1313.187706
       Total energy      (eV) =   -1311.964435      -1311.964790
       Temperature       (K)  =     147.151387        150.172896
       Pressure         (GPa) =       0.872704          0.915924
  ** Time :           19.10000 ps :
     Properties:                   Instantaneous       Averaged
       Kinetic energy    (eV) =       1.203701          1.222866
       Potential energy  (eV) =   -1313.168488      -1313.187656
       Total energy      (eV) =   -1311.964787      -1311.964790
       Temperature       (K)  =     147.813335        150.166719
       Pressure         (GPa) =       0.854722          0.915764
  ** Time :           19.15000 ps :
     Properties:                   Instantaneous       Averaged
       Kinetic energy    (eV) =       1.218151          1.222854
       Potential energy  (eV) =   -1313.182809      -1313.187643
       Total energy      (eV) =   -1311.964658      -1311.964790
       Temperature       (K)  =     149.587782        150.165208
       Pressure         (GPa) =       0.978177          0.915927
  ** Time :           19.20000 ps :
     Properties:                   Instantaneous       Averaged
       Kinetic energy    (eV) =       1.243592          1.222908
       Potential energy  (eV) =   -1313.208151      -1313.187697
       Total energy      (eV) =   -1311.964559      -1311.964789
       Temperature       (K)  =     152.711853        150.171839
       Pressure         (GPa) =       1.030084          0.916224
  ** Time :           19.25000 ps :
     Properties:                   Instantaneous       Averaged
       Kinetic energy    (eV) =       1.070141          1.222511
       Potential energy  (eV) =   -1313.034709      -1313.187299
       Total energy      (eV) =   -1311.964568      -1311.964789
       Temperature       (K)  =     131.412269        150.123113
       Pressure         (GPa) =       0.983977          0.916400
  ** Time :           19.30000 ps :
     Properties:                   Instantaneous       Averaged
       Kinetic energy    (eV) =       1.122650          1.222252
       Potential energy  (eV) =   -1313.087021      -1313.187040
       Total energy      (eV) =   -1311.964371      -1311.964788
       Temperature       (K)  =     137.860307        150.091344
       Pressure         (GPa) =       0.903353          0.916367
  ** Time :           19.35000 ps :
     Properties:                   Instantaneous       Averaged
       Kinetic energy    (eV) =       1.320551          1.222506
       Potential energy  (eV) =   -1313.285499      -1313.187294
       Total energy      (eV) =   -1311.964948      -1311.964788
       Temperature       (K)  =     162.162312        150.122535
       Pressure         (GPa) =       0.877040          0.916265
  ** Time :           19.40000 ps :
     Properties:                   Instantaneous       Averaged
       Kinetic energy    (eV) =       1.222219          1.222505
       Potential energy  (eV) =   -1313.187030      -1313.187293
       Total energy      (eV) =   -1311.964811      -1311.964788
       Temperature       (K)  =     150.087263        150.122445
       Pressure         (GPa) =       0.964160          0.916388
  ** Time :           19.45000 ps :
     Properties:                   Instantaneous       Averaged
       Kinetic energy    (eV) =       1.152025          1.222324
       Potential energy  (eV) =   -1313.116600      -1313.187112
       Total energy      (eV) =   -1311.964575      -1311.964787
       Temperature       (K)  =     141.467481        150.100195
       Pressure         (GPa) =       0.931605          0.916428
  ** Time :           19.50000 ps :
     Properties:                   Instantaneous       Averaged
       Kinetic energy    (eV) =       1.190976          1.222244
       Potential energy  (eV) =   -1313.155960      -1313.187032
       Total energy      (eV) =   -1311.964984      -1311.964788
       Temperature       (K)  =     146.250687        150.090325
       Pressure         (GPa) =       0.919859          0.916436
  ** Time :           19.55000 ps :
     Properties:                   Instantaneous       Averaged
       Kinetic energy    (eV) =       1.178521          1.222132
       Potential energy  (eV) =   -1313.143109      -1313.186919
       Total energy      (eV) =   -1311.964588      -1311.964787
       Temperature       (K)  =     144.721181        150.076593
       Pressure         (GPa) =       0.843241          0.916249
  ** Time :           19.60000 ps :
     Properties:                   Instantaneous       Averaged
       Kinetic energy    (eV) =       1.177236          1.222017
       Potential energy  (eV) =   -1313.142014      -1313.186805
       Total energy      (eV) =   -1311.964779      -1311.964787
       Temperature       (K)  =     144.563361        150.062529
       Pressure         (GPa) =       0.915533          0.916247
  ** Time :           19.65000 ps :
     Properties:                   Instantaneous       Averaged
       Kinetic energy    (eV) =       1.248646          1.222085
       Potential energy  (eV) =   -1313.213621      -1313.186873
       Total energy      (eV) =   -1311.964974      -1311.964788
       Temperature       (K)  =     153.332508        150.070849
       Pressure         (GPa) =       0.880008          0.916155
  ** Time :           19.70000 ps :
     Properties:                   Instantaneous       Averaged
       Kinetic energy    (eV) =       1.261914          1.222186
       Potential energy  (eV) =   -1313.226584      -1313.186974
       Total energy      (eV) =   -1311.964670      -1311.964788
       Temperature       (K)  =     154.961808        150.083263
       Pressure         (GPa) =       0.863896          0.916022
  ** Time :           19.75000 ps :
     Properties:                   Instantaneous       Averaged
       Kinetic energy    (eV) =       1.258643          1.222279
       Potential energy  (eV) =   -1313.223628      -1313.187067
       Total energy      (eV) =   -1311.964985      -1311.964788
       Temperature       (K)  =     154.560093        150.094596
       Pressure         (GPa) =       1.014793          0.916273
  ** Time :           19.80000 ps :
     Properties:                   Instantaneous       Averaged
       Kinetic energy    (eV) =       0.992153          1.221697
       Potential energy  (eV) =   -1312.956366      -1313.186484
       Total energy      (eV) =   -1311.964214      -1311.964787
       Temperature       (K)  =     121.835343        150.023235
       Pressure         (GPa) =       0.894490          0.916218
  ** Time :           19.85000 ps :
     Properties:                   Instantaneous       Averaged
       Kinetic energy    (eV) =       1.267272          1.221812
       Potential energy  (eV) =   -1313.232267      -1313.186599
       Total energy      (eV) =   -1311.964995      -1311.964787
       Temperature       (K)  =     155.619770        150.037332
       Pressure         (GPa) =       0.737510          0.915767
  ** Time :           19.90000 ps :
     Properties:                   Instantaneous       Averaged
       Kinetic energy    (eV) =       1.230239          1.221833
       Potential energy  (eV) =   -1313.194847      -1313.186620
       Total energy      (eV) =   -1311.964608      -1311.964787
       Temperature       (K)  =     151.072164        150.039932
       Pressure         (GPa) =       0.984060          0.915939
  ** Time :           19.95000 ps :
     Properties:                   Instantaneous       Averaged
       Kinetic energy    (eV) =       1.286457          1.221995
       Potential energy  (eV) =   -1313.251422      -1313.186783
       Total energy      (eV) =   -1311.964965      -1311.964787
       Temperature       (K)  =     157.975675        150.059821
       Pressure         (GPa) =       0.961990          0.916054
  ** Time :           20.00000 ps :
     Properties:                   Instantaneous       Averaged
       Kinetic energy    (eV) =       1.098368          1.221686
       Potential energy  (eV) =   -1313.062919      -1313.186473
       Total energy      (eV) =   -1311.964550      -1311.964787
       Temperature       (K)  =     134.878506        150.021868
       Pressure         (GPa) =       0.908901          0.916037

  Peak dynamic memory used =       1.99 MB 


  Timing analysis for GULP :

--------------------------------------------------------------------------------
  Task / Subroutine                                          Time (Seconds)
--------------------------------------------------------------------------------
  Calculation of reciprocal space energy and derivatives         13.0004
  Calculation of real space energy and derivatives              246.5451
  Calculation of matrix inversion                                 0.0163
  Molecular dynamics - update of geometry                         0.1171
  Molecular dynamics - predictor                                  0.0236
  Molecular dynamics - corrector                                  0.0247
  Molecular dynamics - velocity correction                        0.0183
  Global summation overhead                                       0.0138
--------------------------------------------------------------------------------
  Total CPU time                                                260.3472
--------------------------------------------------------------------------------


  Dump file written as example15.grs
  GULP trajectory file written as example15.trg


  Job Finished at 11:39.30  8th July       2020                               

