********************************************************************************
*                       GENERAL UTILITY LATTICE PROGRAM                        *
*                                 Julian Gale                                  *
*                       Curtin Institute for Computation                       *
*                    School of Molecular and Life Sciences                     *
*                    Curtin University, Western Australia                      *
********************************************************************************
* Version = 6.0.0 * Last modified =   7th July 2020                            *
********************************************************************************
*  optimise     - perform optimisation run                                     *
*  c6           - use real and reciprocal space sum for C6 terms               *
*  distance     - calculate distances                                          *
********************************************************************************
* Sodium ion migration in quartz : uses the translate option                   *
* to perform 2-D optimisation for sodium at intervals along                    *
* the channel within quartz structure                                          *
********************************************************************************


  Job Started  at 15:11.39  8th July       2020                               

  Number of CPUs =     1

  Host name      = M-A0034725                              


  Total number of configurations input =      1

********************************************************************************
*  Input for Configuration =   1                                               *
********************************************************************************

  Formula = Si2AlNaO6                                                   

  Number of irreducible atoms/shells =      16


  Total number atoms/shells =      16

  Dimensionality = 3               :  Bulk   



  Cartesian lattice vectors (Angstroms) :

        4.914730    0.000000    0.000000
       -2.457365    4.256281    0.000000
        0.000000    0.000000    5.406570

  Cell parameters (Angstroms/Degrees):

  a =       4.9147    alpha =  90.0000
  b =       4.9147    beta  =  90.0000
  c =       5.4066    gamma = 120.0000

  Initial cell volume =         113.097184 Angs**3

  Temperature of configuration =   0.00     K 

  Pressure of configuration =         0.000 GPa 

  Fractional coordinates of asymmetric unit :

--------------------------------------------------------------------------------
   No.  Atomic       x           y          z         Charge      Occupancy
        Label      (Frac)      (Frac)     (Frac)        (e)         (Frac)  
--------------------------------------------------------------------------------
      1 Si    c    0.000000    0.468200    0.666666     4.00000    1.000000    
      2 Si    c    0.562283 *  0.553474 *  0.985986 *   4.00000    1.000000    
      3 Al    c    0.445925 *  0.991213 *  0.348165 *   3.00000    1.000000    
      4 Na    c    0.996987 *  0.272679 *  0.172946     1.00000    1.000000    
      5 O     c    0.442025 *  0.289142 *  0.194695 *   0.86902    1.000000    
      6 O     c    0.727571 *  0.131612 *  0.581260 *   0.86902    1.000000    
      7 O     c    0.900494 *  0.614677 *  0.895918 *   0.86902    1.000000    
      8 O     c    0.089785 *  0.698420 *  0.439177 *   0.86902    1.000000    
      9 O     c    0.574325 *  0.846687 *  0.110388 *   0.86902    1.000000    
     10 O     c    0.293304 *  0.427050 *  0.765705 *   0.86902    1.000000    
     11 O     s    0.451160 *  0.296281 *  0.182836 *  -2.86902    1.000000    
     12 O     s    0.741396 *  0.160744 *  0.575279 *  -2.86902    1.000000    
     13 O     s    0.874954 *  0.591869 *  0.883898 *  -2.86902    1.000000    
     14 O     s    0.104617 *  0.690857 *  0.457113 *  -2.86902    1.000000    
     15 O     s    0.569630 *  0.824747 *  0.110755 *  -2.86902    1.000000    
     16 O     s    0.289597 *  0.442377 *  0.777587 *  -2.86902    1.000000    
--------------------------------------------------------------------------------



  Distance calculation :


  Cutoff for distances  =      2.500000 Angstroms

--------------------------------------------------------------------------------
  Asymmetric unit site  Full lattice sites    No.  Distance      No.  Distance
      No.   At.No.            At.No.                (Angs)             (Angs) 
--------------------------------------------------------------------------------
       1   Si    core        O     core         1    1.5775        1    1.5898
                                                1    1.6266        1    1.6423
                             O     shell        1    1.4774        1    1.4907
                                                1    1.5812        1    1.6069
--------------------------------------------------------------------------------
       2   Si    core        O     core         1    1.5644        1    1.5945
                                                1    1.6095        1    1.6525
                             O     shell        1    1.4784        1    1.5292
                                                1    1.5530        1    1.6223
--------------------------------------------------------------------------------
       3   Al    core        O     core         1    1.6905        1    1.6914
                                                1    1.7331        1    1.7393
                             O     shell        1    1.6922        1    1.7347
                                                1    1.7609        1    1.7844
--------------------------------------------------------------------------------
       4   Na    core        O     core         1    2.1127        1    2.1511
                                                1    2.3882        1    2.4679
                                                1    2.4878
                             O     shell        1    2.1771        1    2.1788
                                                1    2.4036        1    2.4334
                                                1    2.4766        1    2.4907
--------------------------------------------------------------------------------
       5   O     core        Na    core         1    2.1511
                             Al    core         1    1.6914
                             Si    core         1    1.5945
                             O     shell        1    0.0760        1    2.4244
--------------------------------------------------------------------------------
       6   O     core        Na    core         1    2.4878
                             Al    core         1    1.7393
                             Si    core         1    1.5898
                             O     shell        1    0.1282
--------------------------------------------------------------------------------
       7   O     core        Na    core         1    2.4679
                             Si    core         1    1.6095        1    1.6266
                             O     shell        1    0.1359
--------------------------------------------------------------------------------
       8   O     core        Na    core         1    2.3882
                             Al    core         1    1.6905
                             Si    core         1    1.5775
                             O     shell        1    0.1371        1    2.4355
--------------------------------------------------------------------------------
       9   O     core        Na    core         1    2.1127
                             Al    core         1    1.7331
                             Si    core         1    1.5644
                             O     shell        1    0.0984        1    2.4900
--------------------------------------------------------------------------------
      10   O     core        Si    core         1    1.6423        1    1.6525
                             O     shell        1    0.1073
--------------------------------------------------------------------------------
      11   O     shell       Na    core         1    2.1771
                             Al    core         1    1.7347
                             Si    core         1    1.5292
                             O     core         1    0.0760        1    2.4900
                             O     shell        1    2.3926        1    2.4566
--------------------------------------------------------------------------------
      12   O     shell       Na    core         1    2.4334
                             Al    core         1    1.7609
                             Si    core         1    1.4907
                             O     core         1    0.1282        1    2.4355
                             O     shell        1    2.3941
--------------------------------------------------------------------------------
      13   O     shell       Na    core         1    2.4907
                             Si    core         1    1.5530        1    1.5812
                             O     core         1    0.1359
                             O     shell        1    2.4566
--------------------------------------------------------------------------------
      14   O     shell       Na    core         1    2.4036
                             Al    core         1    1.6922
                             Si    core         1    1.4774
                             O     core         1    0.1371
                             O     shell        1    2.3941
--------------------------------------------------------------------------------
      15   O     shell       Na    core         1    2.1788
                             Al    core         1    1.7844
                             Si    core         1    1.4784
                             O     core         1    0.0984        1    2.4244
                             O     shell        1    2.3926        1    2.4666
--------------------------------------------------------------------------------
      16   O     shell       Na    core         1    2.4766
                             Si    core         1    1.6069        1    1.6223
                             O     core         1    0.1073
                             O     shell        1    2.4666
--------------------------------------------------------------------------------



********************************************************************************
*  General input information                                                   *
********************************************************************************

  Species output for all configurations : 

--------------------------------------------------------------------------------
  Species    Type    Atomic    Atomic    Charge       Radii (Angs)     Library
                     Number     Mass       (e)     Cova   Ionic  VDW   Symbol
--------------------------------------------------------------------------------
    Na       Core       11      22.99   1.000000   0.970  0.000  2.300          
    Al       Core       13      26.98   3.000000   1.350  0.000  2.050          
    Si       Core       14      28.09   4.000000   1.200  0.000  2.100          
    O        Core        8      16.00   0.869020   0.730  0.000  1.360          
    O        Shell       8       0.00  -2.869020   0.730  0.000  1.360          
--------------------------------------------------------------------------------


  Lattice summation method               =    Ewald          (3-D)
                                         =    Parry          (2-D)
                                         =    Saunders et al (1-D)
  Accuracy factor for lattice sums       =   12.000


  Analytic derivatives to be used

  Time limit = Infinity

  Maximum range for interatomic potentials =    100000.000000 Angstroms

  C6 terms to be calculated in real and reciprocal space 

  General interatomic potentials :

--------------------------------------------------------------------------------
Atom  Types   Potential      Parameter       Value         Units   Cutoffs(Ang)
  1     2                                                            Min /  Max 
--------------------------------------------------------------------------------
Na   c O    s Buckingham    Buckingham A     1226.8400    eV        0.000 10.000
                            Buckingham rho  0.30650000    Ang       
                            Buckingham C     0.0000000    eV*Ang^6  
--------------------------------------------------------------------------------
Al   c O    s Buckingham    Buckingham A     1460.3000    eV        0.000 10.000
                            Buckingham rho  0.29912000    Ang       
                            Buckingham C     0.0000000    eV*Ang^6  
--------------------------------------------------------------------------------
Si   c O    s Buckingham    Buckingham A     1283.9070    eV        0.000 12.000
                            Buckingham rho  0.32052000    Ang       
                            Buckingham C     10.661580    eV*Ang^6  
--------------------------------------------------------------------------------
O    s O    s Buckingham    Buckingham A     22764.300    eV        0.000 12.000
                            Buckingham rho  0.14900000    Ang       
                            Buckingham C     27.879000    eV*Ang^6  
--------------------------------------------------------------------------------
O    c O    s Spring (c-s)  Spring k 2       74.920000    eV*Ang^-2 0.000  0.800
                            Spring k 4       0.0000000    eV*Ang^-4 
--------------------------------------------------------------------------------

  General Three-body potentials :

--------------------------------------------------------------------------------
  Atoms       Potential      Parameter       Value         Units   Cutoffs(Ang)
  1 / 2 / 3                                                          Min /  Max 
--------------------------------------------------------------------------------
Si    core    Harmonic      Three-body cnst  2.0972400    eV*rad^-2 0.000  1.900
O     shel                  Three-body angl  109.47000    degrees   0.000  1.900
O     shel                  Three-body k4    0.0000000    eV*rad^-4 0.000  3.500
                            Three-body k3    0.0000000    eV*rad^-3 
--------------------------------------------------------------------------------
Al    core    Harmonic      Three-body cnst  2.0972400    eV*rad^-2 0.000  1.900
O     shel                  Three-body angl  109.47000    degrees   0.000  1.900
O     shel                  Three-body k4    0.0000000    eV*rad^-4 0.000  3.500
                            Three-body k3    0.0000000    eV*rad^-3 
--------------------------------------------------------------------------------

********************************************************************************
*  Output for configuration   1                                                *
********************************************************************************


  Repeat calculation for  11 points

  Translation vector :

  x =     0.000000  y =     0.000000  z =     1.000000


################################################################################
#  Output for point     0                                                      #
################################################################################


  Components of energy : 

--------------------------------------------------------------------------------
  Interatomic potentials     =         109.56122625 eV    
  Three-body potentials      =           0.13828231 eV    
  Monopole - monopole (real) =         -91.76705573 eV    
  Monopole - monopole (recip)=        -358.91555867 eV    
  Monopole - monopole (total)=        -450.68261440 eV    
  Dispersion (real+recip)    =          -8.93508294 eV    
--------------------------------------------------------------------------------
  Total lattice energy       =        -349.91818878 eV    
--------------------------------------------------------------------------------
  Total lattice energy       =          -33761.7562 kJ/(mole unit cells)
--------------------------------------------------------------------------------


  Number of variables =       44

  Maximum number of calculations  =          1000
  Maximum Hessian update interval =            10
  Maximum step size               =   1.000000000
  Maximum parameter tolerance     =   0.000010000
  Maximum function  tolerance     =   0.000010000
  Maximum gradient  tolerance     =   0.001000000
  Maximum gradient  component     =   0.010000000

  Symmetry not applied to optimisation

  Newton-Raphson optimiser to be used

  BFGS hessian update to be used

  Lower half triangular hessian to be used

  Minimiser to switch to RFO
  When gradient norm is less than     0.100000

  Dumpfile to be written after every    2 cycles

  Start of bulk optimisation :

  Cycle:      0 Energy:      -349.918189  Gnorm:      0.000190  CPU:    0.010


  **** Optimisation achieved ****


  Final energy =    -349.91818878 eV
  Final Gnorm  =       0.00019022

  Components of energy : 

--------------------------------------------------------------------------------
  Interatomic potentials     =         109.56122625 eV    
  Three-body potentials      =           0.13828231 eV    
  Monopole - monopole (real) =         -91.76705573 eV    
  Monopole - monopole (recip)=        -358.91555867 eV    
  Monopole - monopole (total)=        -450.68261440 eV    
  Dispersion (real+recip)    =          -8.93508294 eV    
--------------------------------------------------------------------------------
  Total lattice energy       =        -349.91818878 eV    
--------------------------------------------------------------------------------
  Total lattice energy       =          -33761.7562 kJ/(mole unit cells)
--------------------------------------------------------------------------------

  Final fractional coordinates of atoms :

--------------------------------------------------------------------------------
   No.  Atomic        x           y          z          Radius
        Label       (Frac)      (Frac)     (Frac)       (Angs) 
--------------------------------------------------------------------------------
     1  Si    c     0.000000    0.468200    0.666666    0.000000
     2  Si    c     0.562283    0.553474    0.985986    0.000000
     3  Al    c     0.445925    0.991213    0.348165    0.000000
     4  Na    c     0.996987    0.272679    0.172946    0.000000
     5  O     c     0.442025    0.289142    0.194695    0.000000
     6  O     c     0.727571    0.131612    0.581260    0.000000
     7  O     c     0.900494    0.614677    0.895918    0.000000
     8  O     c     0.089785    0.698420    0.439177    0.000000
     9  O     c     0.574325    0.846687    0.110388    0.000000
    10  O     c     0.293304    0.427050    0.765705    0.000000
    11  O     s     0.451160    0.296281    0.182836    0.000000
    12  O     s     0.741396    0.160744    0.575279    0.000000
    13  O     s     0.874954    0.591869    0.883898    0.000000
    14  O     s     0.104617    0.690857    0.457113    0.000000
    15  O     s     0.569630    0.824747    0.110755    0.000000
    16  O     s     0.289597    0.442377    0.777587    0.000000
--------------------------------------------------------------------------------

  Final Cartesian lattice vectors (Angstroms) :

        4.914730    0.000000    0.000000
       -2.457365    4.256281    0.000000
        0.000000    0.000000    5.406570


  Final cell parameters and derivatives :

--------------------------------------------------------------------------------
       a            4.914730 Angstrom     dE/de1(xx)     0.000000 eV/strain
       b            4.914730 Angstrom     dE/de2(yy)     0.000000 eV/strain
       c            5.406570 Angstrom     dE/de3(zz)     0.000000 eV/strain
       alpha       90.000000 Degrees      dE/de4(yz)     0.000000 eV/strain
       beta        90.000000 Degrees      dE/de5(xz)     0.000000 eV/strain
       gamma      120.000000 Degrees      dE/de6(xy)     0.000000 eV/strain
--------------------------------------------------------------------------------

  Primitive cell volume =           113.097184 Angs**3

  Density of cell =      2.968096 g/cm**3

  Non-primitive cell volume =           113.097184 Angs**3


  Final internal derivatives :

--------------------------------------------------------------------------------
   No.  Atomic          a             b             c           Radius
        Label          (eV)          (eV)          (eV)        (eV/Angs)
--------------------------------------------------------------------------------
      1 Si    c       0.000000      0.000000      0.000000      0.000000
      2 Si    c       0.000346     -0.001002      0.001243      0.000000
      3 Al    c      -0.002940      0.002587     -0.000430      0.000000
      4 Na    c      -0.000024     -0.000025      0.000000      0.000000
      5 O     c       0.001510     -0.002721      0.000543      0.000000
      6 O     c       0.000013      0.000483      0.000896      0.000000
      7 O     c      -0.000559      0.000513      0.000099      0.000000
      8 O     c       0.000353      0.000599     -0.001583      0.000000
      9 O     c       0.000188      0.000815      0.001485      0.000000
     10 O     c      -0.000298     -0.000236      0.001261      0.000000
     11 O     s      -0.001070      0.001774      0.001106      0.000000
     12 O     s       0.000730     -0.000876     -0.000306      0.000000
     13 O     s       0.000360      0.000133     -0.001095      0.000000
     14 O     s       0.000092     -0.000592      0.001900      0.000000
     15 O     s       0.001293     -0.001813     -0.002888      0.000000
     16 O     s       0.000569      0.000100     -0.002602      0.000000
--------------------------------------------------------------------------------
  Maximum abs         0.002940      0.002721      0.002888      0.000000
--------------------------------------------------------------------------------


  Distance calculation :


  Cutoff for distances  =      2.500000 Angstroms

--------------------------------------------------------------------------------
  Asymmetric unit site  Full lattice sites    No.  Distance      No.  Distance
      No.   At.No.            At.No.                (Angs)             (Angs) 
--------------------------------------------------------------------------------
       1   Si    core        O     core         1    1.5775        1    1.5898
                                                1    1.6266        1    1.6423
                             O     shell        1    1.4774        1    1.4907
                                                1    1.5812        1    1.6069
--------------------------------------------------------------------------------
       2   Si    core        O     core         1    1.5644        1    1.5945
                                                1    1.6095        1    1.6525
                             O     shell        1    1.4784        1    1.5292
                                                1    1.5530        1    1.6223
--------------------------------------------------------------------------------
       3   Al    core        O     core         1    1.6905        1    1.6914
                                                1    1.7331        1    1.7393
                             O     shell        1    1.6922        1    1.7347
                                                1    1.7609        1    1.7844
--------------------------------------------------------------------------------
       4   Na    core        O     core         1    2.1127        1    2.1511
                                                1    2.3882        1    2.4679
                                                1    2.4878
                             O     shell        1    2.1771        1    2.1788
                                                1    2.4036        1    2.4334
                                                1    2.4766        1    2.4907
--------------------------------------------------------------------------------
       5   O     core        Na    core         1    2.1511
                             Al    core         1    1.6914
                             Si    core         1    1.5945
                             O     shell        1    0.0760        1    2.4244
--------------------------------------------------------------------------------
       6   O     core        Na    core         1    2.4878
                             Al    core         1    1.7393
                             Si    core         1    1.5898
                             O     shell        1    0.1282
--------------------------------------------------------------------------------
       7   O     core        Na    core         1    2.4679
                             Si    core         1    1.6095        1    1.6266
                             O     shell        1    0.1359
--------------------------------------------------------------------------------
       8   O     core        Na    core         1    2.3882
                             Al    core         1    1.6905
                             Si    core         1    1.5775
                             O     shell        1    0.1371        1    2.4355
--------------------------------------------------------------------------------
       9   O     core        Na    core         1    2.1127
                             Al    core         1    1.7331
                             Si    core         1    1.5644
                             O     shell        1    0.0984        1    2.4900
--------------------------------------------------------------------------------
      10   O     core        Si    core         1    1.6423        1    1.6525
                             O     shell        1    0.1073
--------------------------------------------------------------------------------
      11   O     shell       Na    core         1    2.1771
                             Al    core         1    1.7347
                             Si    core         1    1.5292
                             O     core         1    0.0760        1    2.4900
                             O     shell        1    2.3926        1    2.4566
--------------------------------------------------------------------------------
      12   O     shell       Na    core         1    2.4334
                             Al    core         1    1.7609
                             Si    core         1    1.4907
                             O     core         1    0.1282        1    2.4355
                             O     shell        1    2.3941
--------------------------------------------------------------------------------
      13   O     shell       Na    core         1    2.4907
                             Si    core         1    1.5530        1    1.5812
                             O     core         1    0.1359
                             O     shell        1    2.4566
--------------------------------------------------------------------------------
      14   O     shell       Na    core         1    2.4036
                             Al    core         1    1.6922
                             Si    core         1    1.4774
                             O     core         1    0.1371
                             O     shell        1    2.3941
--------------------------------------------------------------------------------
      15   O     shell       Na    core         1    2.1788
                             Al    core         1    1.7844
                             Si    core         1    1.4784
                             O     core         1    0.0984        1    2.4244
                             O     shell        1    2.3926        1    2.4666
--------------------------------------------------------------------------------
      16   O     shell       Na    core         1    2.4766
                             Si    core         1    1.6069        1    1.6223
                             O     core         1    0.1073
                             O     shell        1    2.4666
--------------------------------------------------------------------------------



  Time to end of optimisation =       0.0120 seconds


################################################################################
#  Output for point     1                                                      #
################################################################################


  Components of energy : 

--------------------------------------------------------------------------------
  Interatomic potentials     =         110.84455534 eV    
  Three-body potentials      =           0.13828231 eV    
  Monopole - monopole (real) =         -91.68982305 eV    
  Monopole - monopole (recip)=        -358.84312999 eV    
  Monopole - monopole (total)=        -450.53295304 eV    
  Dispersion (real+recip)    =          -8.93508294 eV    
--------------------------------------------------------------------------------
  Total lattice energy       =        -348.48519834 eV    
--------------------------------------------------------------------------------
  Total lattice energy       =          -33623.4946 kJ/(mole unit cells)
--------------------------------------------------------------------------------


  Number of variables =       44

  Maximum number of calculations  =          1000
  Maximum Hessian update interval =            10
  Maximum step size               =   1.000000000
  Maximum parameter tolerance     =   0.000010000
  Maximum function  tolerance     =   0.000010000
  Maximum gradient  tolerance     =   0.001000000
  Maximum gradient  component     =   0.010000000

  Symmetry not applied to optimisation

  Newton-Raphson optimiser to be used

  BFGS hessian update to be used

  Lower half triangular hessian to be used

  Minimiser to switch to RFO
  When gradient norm is less than     0.100000

  Dumpfile to be written after every    2 cycles

  Start of bulk optimisation :

  Cycle:      0 Energy:      -348.485198  Gnorm:      0.687658  CPU:    0.016
  ** Hessian calculated **
  Cycle:      1 Energy:      -349.369817  Gnorm:      0.276513  CPU:    0.021
  Cycle:      2 Energy:      -349.481771  Gnorm:      0.105449  CPU:    0.026
  Cycle:      3 Energy:      -349.507484  Gnorm:      0.056482  CPU:    0.033
  ** Hessian has required structure
  Cycle:      4 Energy:      -349.508345  Gnorm:      0.044667  CPU:    0.039
  ** Hessian has required structure
  Cycle:      5 Energy:      -349.509825  Gnorm:      0.058420  CPU:    0.045
  ** Hessian has required structure
  Cycle:      6 Energy:      -349.511149  Gnorm:      0.044830  CPU:    0.050
  ** Hessian has required structure
  Cycle:      7 Energy:      -349.511850  Gnorm:      0.034522  CPU:    0.056
  ** Hessian has required structure
  Cycle:      8 Energy:      -349.512242  Gnorm:      0.041449  CPU:    0.061
  ** Hessian has required structure
  Cycle:      9 Energy:      -349.513212  Gnorm:      0.039696  CPU:    0.067
  ** Hessian has required structure
  Cycle:     10 Energy:      -349.514630  Gnorm:      0.059180  CPU:    0.073
  ** Hessian has wrong structure
  ** Imaginary eigenvectors =   1
  Cycle:     11 Energy:      -349.526817  Gnorm:      0.073189  CPU:    0.090
  ** Hessian has required structure
  Cycle:     12 Energy:      -349.571706  Gnorm:      0.100876  CPU:    0.099
  ** Hessian has required structure
  Cycle:     13 Energy:      -349.594692  Gnorm:      0.106300  CPU:    0.104
  ** Hessian has required structure
  Cycle:     14 Energy:      -349.613519  Gnorm:      0.067992  CPU:    0.109
  ** Hessian has required structure
  Cycle:     15 Energy:      -349.629861  Gnorm:      0.052152  CPU:    0.116
  ** Hessian has required structure
  Cycle:     16 Energy:      -349.632890  Gnorm:      0.014294  CPU:    0.121
  ** Hessian has required structure
  Cycle:     17 Energy:      -349.633159  Gnorm:      0.004891  CPU:    0.126
  ** Hessian has required structure
  Cycle:     18 Energy:      -349.633194  Gnorm:      0.001421  CPU:    0.131
  ** Hessian has required structure


  **** Optimisation achieved ****


  Final energy =    -349.63319704 eV
  Final Gnorm  =       0.00050544

  Components of energy : 

--------------------------------------------------------------------------------
  Interatomic potentials     =         109.48452238 eV    
  Three-body potentials      =           0.10935497 eV    
  Monopole - monopole (real) =         -91.43979355 eV    
  Monopole - monopole (recip)=        -358.96788749 eV    
  Monopole - monopole (total)=        -450.40768104 eV    
  Dispersion (real+recip)    =          -8.81939336 eV    
--------------------------------------------------------------------------------
  Total lattice energy       =        -349.63319704 eV    
--------------------------------------------------------------------------------
  Total lattice energy       =          -33734.2589 kJ/(mole unit cells)
--------------------------------------------------------------------------------

  Final fractional coordinates of atoms :

--------------------------------------------------------------------------------
   No.  Atomic        x           y          z          Radius
        Label       (Frac)      (Frac)     (Frac)       (Angs) 
--------------------------------------------------------------------------------
     1  Si    c     0.000000    0.468200    0.666666    0.000000
     2  Si    c     0.532299    0.542272    0.974983    0.000000
     3  Al    c     0.479091    0.009200    0.327047    0.000000
     4  Na    c     0.986893    0.011169    0.272946    0.000000
     5  O     c     0.465204    0.332263    0.217165    0.000000
     6  O     c     0.742669    0.135187    0.563587    0.000000
     7  O     c     0.872129    0.612510    0.875104    0.000000
     8  O     c     0.137389    0.708766    0.443248    0.000000
     9  O     c     0.564451    0.867069    0.063526    0.000000
    10  O     c     0.255939    0.379603    0.774526    0.000000
    11  O     s     0.467433    0.330812    0.198922    0.000000
    12  O     s     0.755028    0.162462    0.556170    0.000000
    13  O     s     0.851055    0.590806    0.864580    0.000000
    14  O     s     0.143500    0.705022    0.458474    0.000000
    15  O     s     0.560161    0.842731    0.072941    0.000000
    16  O     s     0.260993    0.406064    0.785544    0.000000
--------------------------------------------------------------------------------

  Final Cartesian lattice vectors (Angstroms) :

        4.914730    0.000000    0.000000
       -2.457365    4.256281    0.000000
        0.000000    0.000000    5.406570


  Final cell parameters and derivatives :

--------------------------------------------------------------------------------
       a            4.914730 Angstrom     dE/de1(xx)     0.000000 eV/strain
       b            4.914730 Angstrom     dE/de2(yy)     0.000000 eV/strain
       c            5.406570 Angstrom     dE/de3(zz)     0.000000 eV/strain
       alpha       90.000000 Degrees      dE/de4(yz)     0.000000 eV/strain
       beta        90.000000 Degrees      dE/de5(xz)     0.000000 eV/strain
       gamma      120.000000 Degrees      dE/de6(xy)     0.000000 eV/strain
--------------------------------------------------------------------------------

  Primitive cell volume =           113.097184 Angs**3

  Density of cell =      2.968096 g/cm**3

  Non-primitive cell volume =           113.097184 Angs**3


  Final internal derivatives :

--------------------------------------------------------------------------------
   No.  Atomic          a             b             c           Radius
        Label          (eV)          (eV)          (eV)        (eV/Angs)
--------------------------------------------------------------------------------
      1 Si    c       0.000000      0.000000      0.000000      0.000000
      2 Si    c       0.001879     -0.001400      0.006894      0.000000
      3 Al    c      -0.000809      0.002433     -0.001842      0.000000
      4 Na    c      -0.004628      0.004866      0.000000      0.000000
      5 O     c       0.001561     -0.005213     -0.004408      0.000000
      6 O     c       0.003731      0.000467      0.003726      0.000000
      7 O     c      -0.005810      0.002875      0.004709      0.000000
      8 O     c       0.000398      0.001206      0.002481      0.000000
      9 O     c      -0.003396      0.003581      0.002188      0.000000
     10 O     c       0.002772     -0.002525     -0.001535      0.000000
     11 O     s       0.000331      0.000687      0.001419      0.000000
     12 O     s      -0.003647     -0.000910     -0.005248      0.000000
     13 O     s       0.003928     -0.001608     -0.005603      0.000000
     14 O     s       0.005304     -0.006535      0.002497      0.000000
     15 O     s       0.002003      0.000796     -0.001131      0.000000
     16 O     s      -0.002866      0.002647      0.000248      0.000000
--------------------------------------------------------------------------------
  Maximum abs         0.005810      0.006535      0.006894      0.000000
--------------------------------------------------------------------------------


  Distance calculation :


  Cutoff for distances  =      2.500000 Angstroms

--------------------------------------------------------------------------------
  Asymmetric unit site  Full lattice sites    No.  Distance      No.  Distance
      No.   At.No.            At.No.                (Angs)             (Angs) 
--------------------------------------------------------------------------------
       1   Si    core        O     core         1    1.5857        1    1.5871
                                                1    1.6167        1    1.6308
                             O     shell        1    1.5017        1    1.5160
                                                1    1.5764        1    1.5948
--------------------------------------------------------------------------------
       2   Si    core        O     core         1    1.5963        1    1.5969
                                                1    1.6040        1    1.6198
                             O     shell        1    1.5092        1    1.5219
                                                1    1.5435        1    1.5792
--------------------------------------------------------------------------------
       3   Al    core        Na    core         1    2.4415
                             O     core         1    1.7014        1    1.7075
                                                2    1.7283
                             O     shell        1    1.7087        1    1.7304
                                                1    1.7440        1    1.7527
--------------------------------------------------------------------------------
       4   Na    core        Al    core         1    2.4415
                             O     core         1    2.0971        1    2.1503
                                                1    2.1686        1    2.2390
                             O     shell        1    2.1203        1    2.1253
                                                1    2.2407        1    2.2458
--------------------------------------------------------------------------------
       5   O     core        Na    core         1    2.0971
                             Al    core         1    1.7283
                             Si    core         1    1.5963
                             O     shell        1    0.0999        1    2.4391
--------------------------------------------------------------------------------
       6   O     core        Na    core         1    2.2390
                             Al    core         1    1.7014
                             Si    core         1    1.5871
                             O     core         1    2.4651
                             O     shell        1    0.1230
--------------------------------------------------------------------------------
       7   O     core        Si    core         1    1.6167        1    1.6198
                             O     shell        1    0.1196        1    2.4868
--------------------------------------------------------------------------------
       8   O     core        Na    core         1    2.1686
                             Al    core         1    1.7075
                             Si    core         1    1.5857
                             O     shell        1    0.0926        1    2.4632
--------------------------------------------------------------------------------
       9   O     core        Na    core         1    2.1503
                             Al    core         1    1.7283
                             Si    core         1    1.5969
                             O     shell        1    0.1217        1    2.4975
--------------------------------------------------------------------------------
      10   O     core        Si    core         1    1.6040        1    1.6308
                             O     core         1    2.4651
                             O     shell        1    0.1336        1    2.4425
--------------------------------------------------------------------------------
      11   O     shell       Na    core         1    2.1203
                             Al    core         1    1.7527
                             Si    core         1    1.5219
                             O     core         1    0.0999        1    2.4868
                             O     shell        1    2.4197        1    2.4588
--------------------------------------------------------------------------------
      12   O     shell       Na    core         1    2.2458
                             Al    core         1    1.7087
                             Si    core         1    1.5017
                             O     core         1    0.1230        1    2.4425
                                                1    2.4632
                             O     shell        1    2.4379        1    2.4855
--------------------------------------------------------------------------------
      13   O     shell       Si    core         1    1.5764        1    1.5792
                             O     core         1    0.1196
                             O     shell        1    2.4588
--------------------------------------------------------------------------------
      14   O     shell       Na    core         1    2.2407
                             Al    core         1    1.7304
                             Si    core         1    1.5160
                             O     core         1    0.0926
                             O     shell        1    2.4379
--------------------------------------------------------------------------------
      15   O     shell       Na    core         1    2.1253
                             Al    core         1    1.7440
                             Si    core         1    1.5092
                             O     core         1    0.1217        1    2.4391
                             O     shell        1    2.4197        1    2.4549
--------------------------------------------------------------------------------
      16   O     shell       Si    core         1    1.5435        1    1.5948
                             O     core         1    0.1336        1    2.4975
                             O     shell        1    2.4549        1    2.4855
--------------------------------------------------------------------------------



  Time to end of optimisation =       0.1376 seconds


################################################################################
#  Output for point     2                                                      #
################################################################################


  Components of energy : 

--------------------------------------------------------------------------------
  Interatomic potentials     =         110.42293661 eV    
  Three-body potentials      =           0.10935497 eV    
  Monopole - monopole (real) =         -91.76955991 eV    
  Monopole - monopole (recip)=        -358.94665801 eV    
  Monopole - monopole (total)=        -450.71621792 eV    
  Dispersion (real+recip)    =          -8.81939336 eV    
--------------------------------------------------------------------------------
  Total lattice energy       =        -349.00331969 eV    
--------------------------------------------------------------------------------
  Total lattice energy       =          -33673.4853 kJ/(mole unit cells)
--------------------------------------------------------------------------------


  Number of variables =       44

  Maximum number of calculations  =          1000
  Maximum Hessian update interval =            10
  Maximum step size               =   1.000000000
  Maximum parameter tolerance     =   0.000010000
  Maximum function  tolerance     =   0.000010000
  Maximum gradient  tolerance     =   0.001000000
  Maximum gradient  component     =   0.010000000

  Symmetry not applied to optimisation

  Newton-Raphson optimiser to be used

  BFGS hessian update to be used

  Lower half triangular hessian to be used

  Minimiser to switch to RFO
  When gradient norm is less than     0.100000

  Dumpfile to be written after every    2 cycles

  Start of bulk optimisation :

  Cycle:      0 Energy:      -349.003320  Gnorm:      0.684197  CPU:    0.141
  ** Hessian calculated **
  Cycle:      1 Energy:      -349.564114  Gnorm:      0.202435  CPU:    0.147
  ** Hessian calculated **
  Cycle:      2 Energy:      -349.630387  Gnorm:      0.015369  CPU:    0.155
  ** Hessian has required structure
  Cycle:      3 Energy:      -349.630451  Gnorm:      0.014448  CPU:    0.161
  ** Hessian has required structure
  Cycle:      4 Energy:      -349.630555  Gnorm:      0.010537  CPU:    0.166
  ** Hessian has required structure
  Cycle:      5 Energy:      -349.630583  Gnorm:      0.007283  CPU:    0.171
  ** Hessian has required structure
  Cycle:      6 Energy:      -349.630609  Gnorm:      0.006729  CPU:    0.177
  ** Hessian has required structure
  Cycle:      7 Energy:      -349.630630  Gnorm:      0.006517  CPU:    0.183
  ** Hessian has required structure
  Cycle:      8 Energy:      -349.630659  Gnorm:      0.006136  CPU:    0.187
  ** Hessian has required structure
  Cycle:      9 Energy:      -349.630672  Gnorm:      0.004809  CPU:    0.193
  ** Hessian has required structure
  Cycle:     10 Energy:      -349.630691  Gnorm:      0.006097  CPU:    0.198
  ** Hessian has required structure
  Cycle:     11 Energy:      -349.630709  Gnorm:      0.006003  CPU:    0.203
  ** Hessian has required structure
  Cycle:     12 Energy:      -349.630856  Gnorm:      0.000094  CPU:    0.211
  ** Hessian has required structure


  **** Optimisation achieved ****


  Final energy =    -349.63085565 eV
  Final Gnorm  =       0.00000176

  Components of energy : 

--------------------------------------------------------------------------------
  Interatomic potentials     =         109.50045865 eV    
  Three-body potentials      =           0.10885916 eV    
  Monopole - monopole (real) =         -91.45687572 eV    
  Monopole - monopole (recip)=        -358.96605143 eV    
  Monopole - monopole (total)=        -450.42292715 eV    
  Dispersion (real+recip)    =          -8.81724631 eV    
--------------------------------------------------------------------------------
  Total lattice energy       =        -349.63085565 eV    
--------------------------------------------------------------------------------
  Total lattice energy       =          -33734.0330 kJ/(mole unit cells)
--------------------------------------------------------------------------------

  Final fractional coordinates of atoms :

--------------------------------------------------------------------------------
   No.  Atomic        x           y          z          Radius
        Label       (Frac)      (Frac)     (Frac)       (Angs) 
--------------------------------------------------------------------------------
     1  Si    c     0.000000    0.468200    0.666666    0.000000
     2  Si    c     0.542232    0.542252    0.976520    0.000000
     3  Al    c     0.480322    0.000827    0.315003    0.000000
     4  Na    c     0.986623    0.999161    0.372946    0.000000
     5  O     c     0.438287    0.300713    0.199066    0.000000
     6  O     c     0.706528    0.143352    0.579141    0.000000
     7  O     c     0.886202    0.631367    0.866612    0.000000
     8  O     c     0.143147    0.676754    0.423821    0.000000
     9  O     c     0.620168    0.875649    0.079902    0.000000
    10  O     c     0.269774    0.399041    0.767907    0.000000
    11  O     s     0.448387    0.304672    0.183876    0.000000
    12  O     s     0.726753    0.167638    0.569600    0.000000
    13  O     s     0.864951    0.604830    0.855783    0.000000
    14  O     s     0.146766    0.678384    0.442280    0.000000
    15  O     s     0.604714    0.848206    0.087246    0.000000
    16  O     s     0.270264    0.420428    0.778189    0.000000
--------------------------------------------------------------------------------

  Final Cartesian lattice vectors (Angstroms) :

        4.914730    0.000000    0.000000
       -2.457365    4.256281    0.000000
        0.000000    0.000000    5.406570


  Final cell parameters and derivatives :

--------------------------------------------------------------------------------
       a            4.914730 Angstrom     dE/de1(xx)     0.000000 eV/strain
       b            4.914730 Angstrom     dE/de2(yy)     0.000000 eV/strain
       c            5.406570 Angstrom     dE/de3(zz)     0.000000 eV/strain
       alpha       90.000000 Degrees      dE/de4(yz)     0.000000 eV/strain
       beta        90.000000 Degrees      dE/de5(xz)     0.000000 eV/strain
       gamma      120.000000 Degrees      dE/de6(xy)     0.000000 eV/strain
--------------------------------------------------------------------------------

  Primitive cell volume =           113.097184 Angs**3

  Density of cell =      2.968096 g/cm**3

  Non-primitive cell volume =           113.097184 Angs**3


  Final internal derivatives :

--------------------------------------------------------------------------------
   No.  Atomic          a             b             c           Radius
        Label          (eV)          (eV)          (eV)        (eV/Angs)
--------------------------------------------------------------------------------
      1 Si    c       0.000000      0.000000      0.000000      0.000000
      2 Si    c      -0.000001     -0.000014     -0.000008      0.000000
      3 Al    c      -0.000012      0.000035      0.000010      0.000000
      4 Na    c       0.000014      0.000004      0.000000      0.000000
      5 O     c       0.000005     -0.000019     -0.000023      0.000000
      6 O     c       0.000003     -0.000010      0.000002      0.000000
      7 O     c       0.000002      0.000007     -0.000005      0.000000
      8 O     c      -0.000009     -0.000001     -0.000009      0.000000
      9 O     c       0.000010     -0.000011     -0.000002      0.000000
     10 O     c       0.000013      0.000006     -0.000012      0.000000
     11 O     s      -0.000004      0.000020      0.000003      0.000000
     12 O     s      -0.000005      0.000014     -0.000002      0.000000
     13 O     s      -0.000009     -0.000005      0.000021      0.000000
     14 O     s      -0.000001      0.000000     -0.000012      0.000000
     15 O     s       0.000001     -0.000012      0.000009      0.000000
     16 O     s      -0.000002     -0.000011      0.000023      0.000000
--------------------------------------------------------------------------------
  Maximum abs         0.000014      0.000035      0.000023      0.000000
--------------------------------------------------------------------------------


  Distance calculation :


  Cutoff for distances  =      2.500000 Angstroms

--------------------------------------------------------------------------------
  Asymmetric unit site  Full lattice sites    No.  Distance      No.  Distance
      No.   At.No.            At.No.                (Angs)             (Angs) 
--------------------------------------------------------------------------------
       1   Si    core        O     core         1    1.5963        1    1.5970
                                                1    1.6041        1    1.6198
                             O     shell        1    1.5090        1    1.5212
                                                1    1.5436        1    1.5795
--------------------------------------------------------------------------------
       2   Si    core        O     core         1    1.5848        1    1.5863
                                                1    1.6181        1    1.6317
                             O     shell        1    1.5007        1    1.5147
                                                1    1.5794        1    1.5964
--------------------------------------------------------------------------------
       3   Al    core        Na    core         1    2.4425
                             O     core         1    1.6998        1    1.7066
                                                1    1.7284        1    1.7291
                             O     shell        1    1.7062        1    1.7296
                                                1    1.7438        1    1.7534
--------------------------------------------------------------------------------
       4   Na    core        Al    core         1    2.4425
                             O     core         1    2.0969        1    2.1484
                                                1    2.1721        1    2.2426
                             O     shell        1    2.1181        1    2.1225
                                                1    2.2455        1    2.2510
--------------------------------------------------------------------------------
       5   O     core        Na    core         1    2.1721
                             Al    core         1    1.7066
                             Si    core         1    1.5848
                             O     shell        1    0.0929        1    2.4645
--------------------------------------------------------------------------------
       6   O     core        Na    core         1    2.1484
                             Al    core         1    1.7284
                             Si    core         1    1.5970
                             O     shell        1    0.1222        1    2.4943
--------------------------------------------------------------------------------
       7   O     core        Si    core         1    1.6041        1    1.6317
                             O     core         1    2.4598
                             O     shell        1    0.1331        1    2.4386
--------------------------------------------------------------------------------
       8   O     core        Na    core         1    2.0969
                             Al    core         1    1.7291
                             Si    core         1    1.5963
                             O     shell        1    0.1010        1    2.4392
--------------------------------------------------------------------------------
       9   O     core        Na    core         1    2.2426
                             Al    core         1    1.6998
                             Si    core         1    1.5863
                             O     core         1    2.4598
                             O     shell        1    0.1237
--------------------------------------------------------------------------------
      10   O     core        Si    core         1    1.6181        1    1.6198
                             O     shell        1    0.1179        1    2.4859
--------------------------------------------------------------------------------
      11   O     shell       Na    core         1    2.2455
                             Al    core         1    1.7296
                             Si    core         1    1.5147
                             O     core         1    0.0929
                             O     shell        1    2.4386
--------------------------------------------------------------------------------
      12   O     shell       Na    core         1    2.1225
                             Al    core         1    1.7438
                             Si    core         1    1.5090
                             O     core         1    0.1222        1    2.4392
                             O     shell        1    2.4196        1    2.4521
--------------------------------------------------------------------------------
      13   O     shell       Si    core         1    1.5436        1    1.5964
                             O     core         1    0.1331        1    2.4943
                             O     shell        1    2.4521        1    2.4824
--------------------------------------------------------------------------------
      14   O     shell       Na    core         1    2.1181
                             Al    core         1    1.7534
                             Si    core         1    1.5212
                             O     core         1    0.1010        1    2.4859
                             O     shell        1    2.4196        1    2.4583
--------------------------------------------------------------------------------
      15   O     shell       Na    core         1    2.2510
                             Al    core         1    1.7062
                             Si    core         1    1.5007
                             O     core         1    0.1237        1    2.4386
                                                1    2.4645
                             O     shell        1    2.4386        1    2.4824
--------------------------------------------------------------------------------
      16   O     shell       Si    core         2    1.5795
                             O     core         1    0.1179
                             O     shell        1    2.4583
--------------------------------------------------------------------------------



  Time to end of optimisation =       0.2175 seconds


################################################################################
#  Output for point     3                                                      #
################################################################################


  Components of energy : 

--------------------------------------------------------------------------------
  Interatomic potentials     =         110.15544487 eV    
  Three-body potentials      =           0.10885916 eV    
  Monopole - monopole (real) =         -91.61781385 eV    
  Monopole - monopole (recip)=        -358.90927114 eV    
  Monopole - monopole (total)=        -450.52708499 eV    
  Dispersion (real+recip)    =          -8.81724631 eV    
--------------------------------------------------------------------------------
  Total lattice energy       =        -349.08002727 eV    
--------------------------------------------------------------------------------
  Total lattice energy       =          -33680.8865 kJ/(mole unit cells)
--------------------------------------------------------------------------------


  Number of variables =       44

  Maximum number of calculations  =          1000
  Maximum Hessian update interval =            10
  Maximum step size               =   1.000000000
  Maximum parameter tolerance     =   0.000010000
  Maximum function  tolerance     =   0.000010000
  Maximum gradient  tolerance     =   0.001000000
  Maximum gradient  component     =   0.010000000

  Symmetry not applied to optimisation

  Newton-Raphson optimiser to be used

  BFGS hessian update to be used

  Lower half triangular hessian to be used

  Minimiser to switch to RFO
  When gradient norm is less than     0.100000

  Dumpfile to be written after every    2 cycles

  Start of bulk optimisation :

  Cycle:      0 Energy:      -349.080027  Gnorm:      0.730831  CPU:    0.221
  ** Hessian calculated **
  Cycle:      1 Energy:      -349.472309  Gnorm:      0.103040  CPU:    0.227
  Cycle:      2 Energy:      -349.482256  Gnorm:      0.039305  CPU:    0.231
  ** Hessian has wrong structure
  ** Imaginary eigenvectors =   1
  Cycle:      3 Energy:      -349.483114  Gnorm:      0.030639  CPU:    0.243
  ** Hessian has required structure
  Cycle:      4 Energy:      -349.491345  Gnorm:      0.015266  CPU:    0.251
  ** Hessian has required structure
  Cycle:      5 Energy:      -349.492103  Gnorm:      0.005369  CPU:    0.256
  ** Hessian has required structure
  Cycle:      6 Energy:      -349.492351  Gnorm:      0.002233  CPU:    0.263
  ** Hessian has required structure
  Cycle:      7 Energy:      -349.492369  Gnorm:      0.000286  CPU:    0.269
  ** Hessian has required structure


  **** Optimisation achieved ****


  Final energy =    -349.49236940 eV
  Final Gnorm  =       0.00006492

  Components of energy : 

--------------------------------------------------------------------------------
  Interatomic potentials     =         110.65399484 eV    
  Three-body potentials      =           0.13606176 eV    
  Monopole - monopole (real) =         -92.40339979 eV    
  Monopole - monopole (recip)=        -358.92930063 eV    
  Monopole - monopole (total)=        -451.33270042 eV    
  Dispersion (real+recip)    =          -8.94972557 eV    
--------------------------------------------------------------------------------
  Total lattice energy       =        -349.49236940 eV    
--------------------------------------------------------------------------------
  Total lattice energy       =          -33720.6712 kJ/(mole unit cells)
--------------------------------------------------------------------------------

  Final fractional coordinates of atoms :

--------------------------------------------------------------------------------
   No.  Atomic        x           y          z          Radius
        Label       (Frac)      (Frac)     (Frac)       (Angs) 
--------------------------------------------------------------------------------
     1  Si    c     0.000000    0.468200    0.666666    0.000000
     2  Si    c     0.554190    0.534605    0.989840    0.000000
     3  Al    c     0.495246    0.982934    0.315911    0.000000
     4  Na    c     0.037891    0.016156    0.472946    0.000000
     5  O     c     0.435072    0.259594    0.183237    0.000000
     6  O     c     0.695151    0.141385    0.591910    0.000000
     7  O     c     0.887772    0.647121    0.847477    0.000000
     8  O     c     0.149226    0.652228    0.413651    0.000000
     9  O     c     0.675737    0.862164    0.118854    0.000000
    10  O     c     0.273361    0.419977    0.787093    0.000000
    11  O     s     0.450852    0.270612    0.172230    0.000000
    12  O     s     0.717676    0.164338    0.581973    0.000000
    13  O     s     0.868841    0.616139    0.838872    0.000000
    14  O     s     0.152572    0.655714    0.435149    0.000000
    15  O     s     0.649147    0.833835    0.120588    0.000000
    16  O     s     0.272318    0.434868    0.793105    0.000000
--------------------------------------------------------------------------------

  Final Cartesian lattice vectors (Angstroms) :

        4.914730    0.000000    0.000000
       -2.457365    4.256281    0.000000
        0.000000    0.000000    5.406570


  Final cell parameters and derivatives :

--------------------------------------------------------------------------------
       a            4.914730 Angstrom     dE/de1(xx)     0.000000 eV/strain
       b            4.914730 Angstrom     dE/de2(yy)     0.000000 eV/strain
       c            5.406570 Angstrom     dE/de3(zz)     0.000000 eV/strain
       alpha       90.000000 Degrees      dE/de4(yz)     0.000000 eV/strain
       beta        90.000000 Degrees      dE/de5(xz)     0.000000 eV/strain
       gamma      120.000000 Degrees      dE/de6(xy)     0.000000 eV/strain
--------------------------------------------------------------------------------

  Primitive cell volume =           113.097184 Angs**3

  Density of cell =      2.968096 g/cm**3

  Non-primitive cell volume =           113.097184 Angs**3


  Final internal derivatives :

--------------------------------------------------------------------------------
   No.  Atomic          a             b             c           Radius
        Label          (eV)          (eV)          (eV)        (eV/Angs)
--------------------------------------------------------------------------------
      1 Si    c       0.000000      0.000000      0.000000      0.000000
      2 Si    c      -0.000215     -0.000361     -0.001214      0.000000
      3 Al    c      -0.000408      0.000432      0.000256      0.000000
      4 Na    c       0.000074     -0.000095      0.000000      0.000000
      5 O     c      -0.000001     -0.000189      0.000548      0.000000
      6 O     c      -0.000071     -0.000119     -0.000115      0.000000
      7 O     c      -0.000083      0.000104      0.000069      0.000000
      8 O     c       0.000281     -0.000458      0.000058      0.000000
      9 O     c       0.000539      0.001065      0.000436      0.000000
     10 O     c       0.000216     -0.000417     -0.000210      0.000000
     11 O     s      -0.000077     -0.000393      0.000033      0.000000
     12 O     s      -0.000087     -0.000224      0.000207      0.000000
     13 O     s       0.000799     -0.000306     -0.000104      0.000000
     14 O     s      -0.000855      0.000855     -0.000383      0.000000
     15 O     s       0.000324     -0.000435      0.000524      0.000000
     16 O     s      -0.000375      0.000273     -0.000342      0.000000
--------------------------------------------------------------------------------
  Maximum abs         0.000855      0.001065      0.001214      0.000000
--------------------------------------------------------------------------------


  Distance calculation :


  Cutoff for distances  =      2.500000 Angstroms

--------------------------------------------------------------------------------
  Asymmetric unit site  Full lattice sites    No.  Distance      No.  Distance
      No.   At.No.            At.No.                (Angs)             (Angs) 
--------------------------------------------------------------------------------
       1   Si    core        O     core         1    1.5869        1    1.6012
                                                1    1.6067        1    1.6135
                             O     shell        1    1.5099        1    1.5124
                                                1    1.5143        1    1.5826
--------------------------------------------------------------------------------
       2   Si    core        O     core         1    1.5721        1    1.5727
                                                1    1.6268        1    1.6369
                             O     shell        1    1.4812        1    1.5016
                                                1    1.6120        1    1.6161
--------------------------------------------------------------------------------
       3   Al    core        Na    core         1    2.4833
                             O     core         1    1.6736        1    1.6891
                                                1    1.7416        1    1.7461
                             O     shell        1    1.6669        1    1.7200
                                                1    1.7563        1    1.7691
--------------------------------------------------------------------------------
       4   Na    core        Al    core         1    2.4833
                             O     core         1    2.1401        1    2.1602
                                                1    2.3151        1    2.4220
                                                1    2.4615
                             O     shell        1    2.1204        1    2.1215
                                                1    2.4059        1    2.4875
--------------------------------------------------------------------------------
       5   O     core        Na    core         1    2.3151
                             Al    core         1    1.6891
                             Si    core         1    1.5721
                             O     shell        1    0.0910        1    2.4935
--------------------------------------------------------------------------------
       6   O     core        Na    core         1    2.1602
                             Al    core         1    1.7416
                             Si    core         1    1.6067
                             O     shell        1    0.1240        1    2.4421
--------------------------------------------------------------------------------
       7   O     core        Si    core         1    1.5869        1    1.6369
                             O     core         1    2.3360
                             O     shell        1    0.1409        1    2.3397
--------------------------------------------------------------------------------
       8   O     core        Na    core         1    2.1401
                             Al    core         1    1.7461
                             Si    core         1    1.6012
                             O     shell        1    0.1174        1    2.4476
--------------------------------------------------------------------------------
       9   O     core        Na    core         1    2.4615
                             Al    core         1    1.6736
                             Si    core         1    1.5727
                             O     core         1    2.3360
                             O     shell        1    0.1355        1    2.4087
--------------------------------------------------------------------------------
      10   O     core        Na    core         1    2.4220
                             Si    core         1    1.6135        1    1.6268
                             O     shell        1    0.0825        1    2.4501
--------------------------------------------------------------------------------
      11   O     shell       Na    core         1    2.4059
                             Al    core         1    1.7200
                             Si    core         1    1.5016
                             O     core         1    0.0910
                             O     shell        1    2.4479
--------------------------------------------------------------------------------
      12   O     shell       Na    core         1    2.1215
                             Al    core         1    1.7563
                             Si    core         1    1.5143
                             O     core         1    0.1240        1    2.4476
                             O     shell        1    2.4004        1    2.4226
--------------------------------------------------------------------------------
      13   O     shell       Si    core         1    1.5099        1    1.6120
                             O     core         1    0.1409        1    2.4087
                                                1    2.4421
                             O     shell        1    2.4004        1    2.4053
--------------------------------------------------------------------------------
      14   O     shell       Na    core         1    2.1204
                             Al    core         1    1.7691
                             Si    core         1    1.5124
                             O     core         1    0.1174        1    2.4501
                             O     shell        1    2.4226        1    2.4308
--------------------------------------------------------------------------------
      15   O     shell       Al    core         1    1.6669
                             Si    core         1    1.4812
                             O     core         1    0.1355        1    2.3397
                                                1    2.4935
                             O     shell        1    2.4053        1    2.4479
--------------------------------------------------------------------------------
      16   O     shell       Na    core         1    2.4875
                             Si    core         1    1.5826        1    1.6161
                             O     core         1    0.0825
                             O     shell        1    2.4308
--------------------------------------------------------------------------------



  Time to end of optimisation =       0.2761 seconds


################################################################################
#  Output for point     4                                                      #
################################################################################


  Components of energy : 

--------------------------------------------------------------------------------
  Interatomic potentials     =         111.40469549 eV    
  Three-body potentials      =           0.13606176 eV    
  Monopole - monopole (real) =         -92.60652319 eV    
  Monopole - monopole (recip)=        -358.86549871 eV    
  Monopole - monopole (total)=        -451.47202190 eV    
  Dispersion (real+recip)    =          -8.94972557 eV    
--------------------------------------------------------------------------------
  Total lattice energy       =        -348.88099023 eV    
--------------------------------------------------------------------------------
  Total lattice energy       =          -33661.6824 kJ/(mole unit cells)
--------------------------------------------------------------------------------


  Number of variables =       44

  Maximum number of calculations  =          1000
  Maximum Hessian update interval =            10
  Maximum step size               =   1.000000000
  Maximum parameter tolerance     =   0.000010000
  Maximum function  tolerance     =   0.000010000
  Maximum gradient  tolerance     =   0.001000000
  Maximum gradient  component     =   0.010000000

  Symmetry not applied to optimisation

  Newton-Raphson optimiser to be used

  BFGS hessian update to be used

  Lower half triangular hessian to be used

  Minimiser to switch to RFO
  When gradient norm is less than     0.100000

  Dumpfile to be written after every    2 cycles

  Start of bulk optimisation :

  Cycle:      0 Energy:      -348.880990  Gnorm:      0.625261  CPU:    0.280
  ** Hessian calculated **
  Cycle:      1 Energy:      -349.173266  Gnorm:      0.105850  CPU:    0.285
  ** Hessian calculated **
  Cycle:      2 Energy:      -349.211456  Gnorm:      0.061806  CPU:    0.292
  ** Hessian has required structure
  Cycle:      3 Energy:      -349.212797  Gnorm:      0.055540  CPU:    0.299
  ** Hessian has required structure
  Cycle:      4 Energy:      -349.215533  Gnorm:      0.058900  CPU:    0.304
  ** Hessian has required structure
  Cycle:      5 Energy:      -349.217898  Gnorm:      0.077908  CPU:    0.310
  ** Hessian has required structure
  Cycle:      6 Energy:      -349.220166  Gnorm:      0.053908  CPU:    0.316
  ** Hessian has required structure
  Cycle:      7 Energy:      -349.221255  Gnorm:      0.050927  CPU:    0.321
  ** Hessian has required structure
  Cycle:      8 Energy:      -349.222201  Gnorm:      0.052417  CPU:    0.326
  ** Hessian has required structure
  Cycle:      9 Energy:      -349.223102  Gnorm:      0.061664  CPU:    0.332
  ** Hessian has required structure
  Cycle:     10 Energy:      -349.224310  Gnorm:      0.058833  CPU:    0.337
  ** Hessian has required structure
  Cycle:     11 Energy:      -349.224789  Gnorm:      0.047739  CPU:    0.343
  ** Hessian has required structure
  Cycle:     12 Energy:      -349.250075  Gnorm:      0.067260  CPU:    0.352
  ** Hessian has required structure
  Cycle:     13 Energy:      -349.264106  Gnorm:      0.141763  CPU:    0.359
  ** Hessian has required structure
  Cycle:     14 Energy:      -349.277772  Gnorm:      0.207186  CPU:    0.367
  ** Hessian has required structure
  Cycle:     15 Energy:      -349.343986  Gnorm:      0.267955  CPU:    0.373
  ** Hessian has required structure
  Cycle:     16 Energy:      -349.426809  Gnorm:      0.186638  CPU:    0.378
  ** Hessian has required structure
  Cycle:     17 Energy:      -349.463533  Gnorm:      0.138912  CPU:    0.384
  ** Hessian has required structure
  Cycle:     18 Energy:      -349.479479  Gnorm:      0.076213  CPU:    0.391
  ** Hessian has required structure
  Cycle:     19 Energy:      -349.487136  Gnorm:      0.052385  CPU:    0.397
  ** Hessian has required structure
  Cycle:     20 Energy:      -349.491660  Gnorm:      0.031203  CPU:    0.403
  ** Hessian has required structure
  Cycle:     21 Energy:      -349.493279  Gnorm:      0.027664  CPU:    0.409
  ** Hessian has required structure
  Cycle:     22 Energy:      -349.496255  Gnorm:      0.006579  CPU:    0.418
  ** Hessian has required structure
  Cycle:     23 Energy:      -349.496355  Gnorm:      0.000956  CPU:    0.424
  ** Hessian has required structure
  Cycle:     24 Energy:      -349.496365  Gnorm:      0.000310  CPU:    0.430
  ** Hessian has required structure


  **** Optimisation achieved ****


  Final energy =    -349.49636559 eV
  Final Gnorm  =       0.00002069

  Components of energy : 

--------------------------------------------------------------------------------
  Interatomic potentials     =         113.06659428 eV    
  Three-body potentials      =           0.10482392 eV    
  Monopole - monopole (real) =         -94.51931570 eV    
  Monopole - monopole (recip)=        -358.82157885 eV    
  Monopole - monopole (total)=        -453.34089455 eV    
  Dispersion (real+recip)    =          -9.32688923 eV    
--------------------------------------------------------------------------------
  Total lattice energy       =        -349.49636559 eV    
--------------------------------------------------------------------------------
  Total lattice energy       =          -33721.0567 kJ/(mole unit cells)
--------------------------------------------------------------------------------

  Final fractional coordinates of atoms :

--------------------------------------------------------------------------------
   No.  Atomic        x           y          z          Radius
        Label       (Frac)      (Frac)     (Frac)       (Angs) 
--------------------------------------------------------------------------------
     1  Si    c     0.000000    0.468200    0.666666    0.000000
     2  Si    c     0.546095    0.480492    0.999893    0.000000
     3  Al    c     0.554542    0.942491    0.310395    0.000000
     4  Na    c     0.217902    0.102592    0.572946    0.000000
     5  O     c     0.465797    0.146398    0.099453    0.000000
     6  O     c     0.764165    0.127722    0.568323    0.000000
     7  O     c     0.780183    0.601915    0.760528    0.000000
     8  O     c     0.208849    0.665775    0.443471    0.000000
     9  O     c     0.719440    0.740653    0.197632    0.000000
    10  O     c     0.215343    0.445002    0.890349    0.000000
    11  O     s     0.480748    0.171313    0.102239    0.000000
    12  O     s     0.778812    0.154649    0.562157    0.000000
[...]
                             O     shell        1    2.3980        1    2.4902
--------------------------------------------------------------------------------
      12   O     shell       Al    core         1    1.6588
                             Si    core         1    1.4278
                             O     core         1    0.1678        1    2.4554
                             O     shell        1    2.4268        1    2.4417
--------------------------------------------------------------------------------
      13   O     shell       Na    core         1    2.3424
                             Si    core         1    1.6141        1    1.6445
                             O     core         1    0.0838
                             O     shell        1    2.4902
--------------------------------------------------------------------------------
      14   O     shell       Al    core         1    1.7546
                             Si    core         1    1.4952
                             O     core         1    0.1036
                             O     shell        1    2.4268
--------------------------------------------------------------------------------
      15   O     shell       Na    core         1    2.3064
                             Al    core         1    1.7374
                             Si    core         1    1.4785
                             O     core         1    0.1239        1    2.4283
                                                1    2.4339
                             O     shell        1    2.3481        1    2.3980
--------------------------------------------------------------------------------
      16   O     shell       Si    core         1    1.5300        1    1.5869
                             O     core         1    0.1446        1    2.4235
                                                1    2.4955
                             O     shell        1    2.3481        1    2.4417
--------------------------------------------------------------------------------



  Time to end of optimisation =       0.8936 seconds


################################################################################
#  Output for point    10                                                      #
################################################################################


  Components of energy : 

--------------------------------------------------------------------------------
  Interatomic potentials     =         113.33484904 eV    
  Three-body potentials      =           0.10018905 eV    
  Monopole - monopole (real) =         -94.55667914 eV    
  Monopole - monopole (recip)=        -358.81102107 eV    
  Monopole - monopole (total)=        -453.36770021 eV    
  Dispersion (real+recip)    =          -9.35182712 eV    
--------------------------------------------------------------------------------
  Total lattice energy       =        -349.28448924 eV    
--------------------------------------------------------------------------------
  Total lattice energy       =          -33700.6139 kJ/(mole unit cells)
--------------------------------------------------------------------------------


  Number of variables =       44

  Maximum number of calculations  =          1000
  Maximum Hessian update interval =            10
  Maximum step size               =   1.000000000
  Maximum parameter tolerance     =   0.000010000
  Maximum function  tolerance     =   0.000010000
  Maximum gradient  tolerance     =   0.001000000
  Maximum gradient  component     =   0.010000000

  Symmetry not applied to optimisation

  Newton-Raphson optimiser to be used

  BFGS hessian update to be used

  Lower half triangular hessian to be used

  Minimiser to switch to RFO
  When gradient norm is less than     0.100000

  Dumpfile to be written after every    2 cycles

  Start of bulk optimisation :

  Cycle:      0 Energy:      -349.284489  Gnorm:      0.585712  CPU:    0.897
  ** Hessian calculated **
  Cycle:      1 Energy:      -349.500299  Gnorm:      0.333842  CPU:    0.902
  Cycle:      2 Energy:      -349.544137  Gnorm:      0.170453  CPU:    0.907
  Cycle:      3 Energy:      -349.554929  Gnorm:      0.123764  CPU:    0.912
  Cycle:      4 Energy:      -349.561058  Gnorm:      0.097970  CPU:    0.917
  ** Hessian has required structure
  Cycle:      5 Energy:      -349.565346  Gnorm:      0.124043  CPU:    0.922
  ** Hessian has required structure
  Cycle:      6 Energy:      -349.573055  Gnorm:      0.120390  CPU:    0.929
  ** Hessian has required structure
  Cycle:      7 Energy:      -349.577976  Gnorm:      0.098584  CPU:    0.935
  ** Hessian has required structure
  Cycle:      8 Energy:      -349.580727  Gnorm:      0.124997  CPU:    0.940
  ** Hessian has required structure
  Cycle:      9 Energy:      -349.588388  Gnorm:      0.083674  CPU:    0.947
  ** Hessian has required structure
  Cycle:     10 Energy:      -349.589778  Gnorm:      0.089460  CPU:    0.952
  ** Hessian has required structure
  Cycle:     11 Energy:      -349.661622  Gnorm:      0.106117  CPU:    0.963
  ** Hessian has required structure
  Cycle:     12 Energy:      -349.682478  Gnorm:      0.182729  CPU:    0.968
  ** Hessian has required structure
  Cycle:     13 Energy:      -349.710199  Gnorm:      0.184415  CPU:    0.975
  ** Hessian has required structure
  Cycle:     14 Energy:      -349.755664  Gnorm:      0.225338  CPU:    0.983
  ** Hessian has required structure
  Cycle:     15 Energy:      -349.825277  Gnorm:      0.143893  CPU:    0.989
  ** Hessian has required structure
  Cycle:     16 Energy:      -349.842429  Gnorm:      0.146812  CPU:    0.995
  ** Hessian has required structure
  Cycle:     17 Energy:      -349.884054  Gnorm:      0.108387  CPU:    1.001
  ** Hessian has required structure
  Cycle:     18 Energy:      -349.908479  Gnorm:      0.087523  CPU:    1.008
  ** Hessian has required structure
  Cycle:     19 Energy:      -349.915925  Gnorm:      0.041800  CPU:    1.015
  ** Hessian has required structure
  Cycle:     20 Energy:      -349.917934  Gnorm:      0.015930  CPU:    1.022
  ** Hessian has required structure
  Cycle:     21 Energy:      -349.918189  Gnorm:      0.000061  CPU:    1.030
  ** Hessian has required structure


  **** Optimisation achieved ****


  Final energy =    -349.91818880 eV
  Final Gnorm  =       0.00000089

  Components of energy : 

--------------------------------------------------------------------------------
  Interatomic potentials     =         109.56130633 eV    
  Three-body potentials      =           0.13828353 eV    
  Monopole - monopole (real) =         -91.76712660 eV    
  Monopole - monopole (recip)=        -358.91556739 eV    
  Monopole - monopole (total)=        -450.68269399 eV    
  Dispersion (real+recip)    =          -8.93508466 eV    
--------------------------------------------------------------------------------
  Total lattice energy       =        -349.91818880 eV    
--------------------------------------------------------------------------------
  Total lattice energy       =          -33761.7562 kJ/(mole unit cells)
--------------------------------------------------------------------------------

  Final fractional coordinates of atoms :

--------------------------------------------------------------------------------
   No.  Atomic        x           y          z          Radius
        Label       (Frac)      (Frac)     (Frac)       (Angs) 
--------------------------------------------------------------------------------
     1  Si    c     0.000000    0.468200    0.666666    0.000000
     2  Si    c     0.437717    0.382926    0.985985    0.000000
     3  Al    c     0.554073    0.945189    0.348164    0.000000
     4  Na    c     0.003013    0.663722    0.172946    0.000000
     5  O     c     0.425679    0.089715    0.110387    0.000000
     6  O     c     0.910215    0.237979    0.439178    0.000000
     7  O     c     0.706696    0.509349    0.765705    0.000000
     8  O     c     0.272429    0.804788    0.581259    0.000000
     9  O     c     0.557976    0.647258    0.194693    0.000000
    10  O     c     0.099507    0.321726    0.895920    0.000000
    11  O     s     0.430373    0.111654    0.110756    0.000000
    12  O     s     0.895383    0.245542    0.457114    0.000000
    13  O     s     0.710403    0.494022    0.777588    0.000000
    14  O     s     0.258604    0.775656    0.575278    0.000000
    15  O     s     0.548841    0.640120    0.182834    0.000000
    16  O     s     0.125047    0.344533    0.883900    0.000000
--------------------------------------------------------------------------------

  Final Cartesian lattice vectors (Angstroms) :

        4.914730    0.000000    0.000000
       -2.457365    4.256281    0.000000
        0.000000    0.000000    5.406570


  Final cell parameters and derivatives :

--------------------------------------------------------------------------------
       a            4.914730 Angstrom     dE/de1(xx)     0.000000 eV/strain
       b            4.914730 Angstrom     dE/de2(yy)     0.000000 eV/strain
       c            5.406570 Angstrom     dE/de3(zz)     0.000000 eV/strain
       alpha       90.000000 Degrees      dE/de4(yz)     0.000000 eV/strain
       beta        90.000000 Degrees      dE/de5(xz)     0.000000 eV/strain
       gamma      120.000000 Degrees      dE/de6(xy)     0.000000 eV/strain
--------------------------------------------------------------------------------

  Primitive cell volume =           113.097184 Angs**3

  Density of cell =      2.968096 g/cm**3

  Non-primitive cell volume =           113.097184 Angs**3


  Final internal derivatives :

--------------------------------------------------------------------------------
   No.  Atomic          a             b             c           Radius
        Label          (eV)          (eV)          (eV)        (eV/Angs)
--------------------------------------------------------------------------------
      1 Si    c       0.000000      0.000000      0.000000      0.000000
      2 Si    c      -0.000001      0.000002     -0.000001      0.000000
      3 Al    c       0.000006      0.000002      0.000004      0.000000
      4 Na    c      -0.000004     -0.000001      0.000000      0.000000
      5 O     c       0.000001     -0.000005     -0.000000      0.000000
      6 O     c      -0.000016      0.000022      0.000006      0.000000
      7 O     c      -0.000003      0.000008      0.000002      0.000000
      8 O     c      -0.000003     -0.000001      0.000006      0.000000
      9 O     c       0.000001      0.000001      0.000004      0.000000
     10 O     c       0.000004      0.000002     -0.000002      0.000000
     11 O     s       0.000002      0.000007     -0.000000      0.000000
     12 O     s       0.000002     -0.000009      0.000001      0.000000
     13 O     s       0.000003     -0.000011     -0.000005      0.000000
     14 O     s       0.000003     -0.000002      0.000002      0.000000
     15 O     s       0.000003     -0.000007     -0.000001      0.000000
     16 O     s      -0.000004      0.000000     -0.000010      0.000000
--------------------------------------------------------------------------------
  Maximum abs         0.000016      0.000022      0.000010      0.000000
--------------------------------------------------------------------------------


  Distance calculation :


  Cutoff for distances  =      2.500000 Angstroms

--------------------------------------------------------------------------------
  Asymmetric unit site  Full lattice sites    No.  Distance      No.  Distance
      No.   At.No.            At.No.                (Angs)             (Angs) 
--------------------------------------------------------------------------------
       1   Si    core        O     core         1    1.5775        1    1.5898
                                                1    1.6266        1    1.6423
                             O     shell        1    1.4774        1    1.4907
                                                1    1.5812        1    1.6069
--------------------------------------------------------------------------------
       2   Si    core        O     core         1    1.5644        1    1.5945
                                                1    1.6095        1    1.6525
                             O     shell        1    1.4784        1    1.5292
                                                1    1.5530        1    1.6223
--------------------------------------------------------------------------------
       3   Al    core        O     core         1    1.6905        1    1.6914
                                                1    1.7331        1    1.7393
                             O     shell        1    1.6922        1    1.7347
                                                1    1.7609        1    1.7843
--------------------------------------------------------------------------------
       4   Na    core        O     core         1    2.1128        1    2.1511
                                                1    2.3883        1    2.4679
                                                1    2.4878
                             O     shell        1    2.1771        1    2.1788
                                                1    2.4036        1    2.4333
                                                1    2.4766        1    2.4907
--------------------------------------------------------------------------------
       5   O     core        Na    core         1    2.1128
                             Al    core         1    1.7331
                             Si    core         1    1.5644
                             O     shell        1    0.0984        1    2.4900
--------------------------------------------------------------------------------
       6   O     core        Na    core         1    2.3883
                             Al    core         1    1.6905
                             Si    core         1    1.5775
                             O     shell        1    0.1371        1    2.4355
--------------------------------------------------------------------------------
       7   O     core        Si    core         1    1.6423        1    1.6525
                             O     shell        1    0.1073
--------------------------------------------------------------------------------
       8   O     core        Na    core         1    2.4878
                             Al    core         1    1.7393
                             Si    core         1    1.5898
                             O     shell        1    0.1282
--------------------------------------------------------------------------------
       9   O     core        Na    core         1    2.1511
                             Al    core         1    1.6914
                             Si    core         1    1.5945
                             O     shell        1    0.0760        1    2.4244
--------------------------------------------------------------------------------
      10   O     core        Na    core         1    2.4679
                             Si    core         1    1.6095        1    1.6266
                             O     shell        1    0.1359
--------------------------------------------------------------------------------
      11   O     shell       Na    core         1    2.1788
                             Al    core         1    1.7843
                             Si    core         1    1.4784
                             O     core         1    0.0984        1    2.4244
                             O     shell        1    2.3926        1    2.4666
--------------------------------------------------------------------------------
      12   O     shell       Na    core         1    2.4036
                             Al    core         1    1.6922
                             Si    core         1    1.4774
                             O     core         1    0.1371
                             O     shell        1    2.3941
--------------------------------------------------------------------------------
      13   O     shell       Na    core         1    2.4766
                             Si    core         1    1.6069        1    1.6223
                             O     core         1    0.1073
                             O     shell        1    2.4666
--------------------------------------------------------------------------------
      14   O     shell       Na    core         1    2.4333
                             Al    core         1    1.7609
                             Si    core         1    1.4907
                             O     core         1    0.1282        1    2.4355
                             O     shell        1    2.3941
--------------------------------------------------------------------------------
      15   O     shell       Na    core         1    2.1771
                             Al    core         1    1.7347
                             Si    core         1    1.5292
                             O     core         1    0.0760        1    2.4900
                             O     shell        1    2.3926        1    2.4566
--------------------------------------------------------------------------------
      16   O     shell       Na    core         1    2.4907
                             Si    core         1    1.5530        1    1.5812
                             O     core         1    0.1359
                             O     shell        1    2.4566
--------------------------------------------------------------------------------



  Time to end of optimisation =       1.0369 seconds


  Final energies for configurations from translate option:

--------------------------------------------------------------------------------
    Translate step number                           Energy (eV)                 
--------------------------------------------------------------------------------
             0                                     -349.91818878
             1                                     -349.63319704
             2                                     -349.63085565
             3                                     -349.49236940
             4                                     -349.49636559
             5                                     -349.41476259
             6                                     -349.59881174
             7                                     -349.66370625
             8                                     -349.46611789
             9                                     -349.45706830
            10                                     -349.91818880
--------------------------------------------------------------------------------


  Peak dynamic memory used =       1.88 MB 


  Timing analysis for GULP :

--------------------------------------------------------------------------------
  Task / Subroutine                                          Time (Seconds)
--------------------------------------------------------------------------------
  Calculation of reciprocal space energy and derivatives          0.3986
  Calculation of real space energy and derivatives                0.5222
  Calculation of three-body energy and derivatives                0.0457
  Calculation and manipulation of Hessian matrix                  0.0401
  Calculation of matrix inversion                                 0.0004
  Global summation overhead                                       0.0004
--------------------------------------------------------------------------------
  Total CPU time                                                  1.0370
--------------------------------------------------------------------------------


  Dump file written as example11.grs


  Job Finished at 15:11.40  8th July       2020                               

