********************************************************************************
*                       GENERAL UTILITY LATTICE PROGRAM                        *
*                                 Julian Gale                                  *
*                       Curtin Institute for Computation                       *
*                    School of Molecular and Life Sciences                     *
*                    Curtin University, Western Australia                      *
********************************************************************************
* Version = 6.0.0 * Last modified =   7th July 2020                            *
********************************************************************************
*  optimise     - perform optimisation run                                     *
*  conp         - constant pressure calculation                                *
*  property     - calculate properties for final geometry                      *
*  phonon       - calculate phonons for final geometry                         *
********************************************************************************

  Job Started  at 11:50.30  8th July       2020                               

  Number of CPUs =     1

  Host name      = M-A0034725                              


  Total number of configurations input =      1

********************************************************************************
*  Input for Configuration =   1                                               *
********************************************************************************

  Formula = Si3O6                                                       

  Number of irreducible atoms/shells =       3


  Total number atoms/shells =      15

  Dimensionality = 3               :  Bulk   


  Symmetry :

  Crystal family                   :  Hexagonal   
  Crystal class  (Groth - 1921)    :  Trigonal Trapezohedral               

  Space group (noncentrosymmetric) :  P 32 2 1        

  Patterson group                  :  P -3 m 1 

  Shift of the origin              :      0      0    2/3

  Cartesian lattice vectors (Angstroms) :

        4.914730    0.000000    0.000000
       -2.457365    4.256281    0.000000
        0.000000    0.000000    5.406570

  Cell parameters (Angstroms/Degrees):

  a =       4.9147    alpha =  90.0000
  b =       4.9147    beta  =  90.0000
  c =       5.4066    gamma = 120.0000

  Initial cell volume =         113.097184 Angs**3

  Temperature of configuration =   0.00     K 

  Pressure of configuration =         0.000 GPa 

  Fractional coordinates of asymmetric unit :

--------------------------------------------------------------------------------
   No.  Atomic       x           y          z         Charge      Occupancy
        Label      (Frac)      (Frac)     (Frac)        (e)         (Frac)  
--------------------------------------------------------------------------------
      1 Si    c    0.468200 *  0.000000    0.000000     4.00000    1.000000    
      2 O     c    0.413100 *  0.266100 *  0.113100 *   0.84820    1.000000    
      3 O     s    0.413100 *  0.266100 *  0.113100 *  -2.84820    1.000000    
--------------------------------------------------------------------------------


  Constraints : 

--------------------------------------------------------------------------------
  Constraint no.      Unconstrained     Constrained    Coefficient    Offset
                         Variable         Variable
--------------------------------------------------------------------------------
           1              Strain 1        Strain 2       1.00000      0.0000
--------------------------------------------------------------------------------

  Brillouin zone sampling points :

--------------------------------------------------------------------------------
  Point number          x          y          z            Weight
--------------------------------------------------------------------------------
        1           0.000000   0.000000   0.000000     1.00000000
--------------------------------------------------------------------------------


********************************************************************************
*  General input information                                                   *
********************************************************************************

  Species output for all configurations : 

--------------------------------------------------------------------------------
  Species    Type    Atomic    Atomic    Charge       Radii (Angs)     Library
                     Number     Mass       (e)     Cova   Ionic  VDW   Symbol
--------------------------------------------------------------------------------
    Si       Core       14      28.09   4.000000   1.200  0.000  2.100          
    O        Core        8      16.00   0.848200   0.730  0.000  1.360          
    O        Shell       8       0.00  -2.848200   0.730  0.000  1.360          
--------------------------------------------------------------------------------


  Lattice summation method               =    Ewald          (3-D)
                                         =    Parry          (2-D)
                                         =    Saunders et al (1-D)
  Accuracy factor for lattice sums       =   12.000


  Analytic derivatives to be used

  Time limit = Infinity

  Maximum range for interatomic potentials =    100000.000000 Angstroms

  General interatomic potentials :

--------------------------------------------------------------------------------
Atom  Types   Potential      Parameter       Value         Units   Cutoffs(Ang)
  1     2                                                            Min /  Max 
--------------------------------------------------------------------------------
Si   c O    s Buckingham    Buckingham A     1283.9073    eV        0.000  8.000
                            Buckingham rho  0.32050000    Ang       
                            Buckingham C     10.661600    eV*Ang^6  
--------------------------------------------------------------------------------
O    s O    s Buckingham    Buckingham A     22764.000    eV        0.000  8.000
                            Buckingham rho  0.14900000    Ang       
                            Buckingham C     27.880000    eV*Ang^6  
--------------------------------------------------------------------------------
O    c O    s Spring (c-s)  Spring k 2       74.920000    eV*Ang^-2 0.000  0.800
                            Spring k 4       0.0000000    eV*Ang^-4 
--------------------------------------------------------------------------------

  General Three-body potentials :

--------------------------------------------------------------------------------
  Atoms       Potential      Parameter       Value         Units   Cutoffs(Ang)
  1 / 2 / 3                                                          Min /  Max 
--------------------------------------------------------------------------------
Si    core    Harmonic      Three-body cnst  2.0972400    eV*rad^-2 0.000  1.800
O     shel                  Three-body angl  109.47000    degrees   0.000  1.800
O     shel                  Three-body k4    0.0000000    eV*rad^-4 0.000  3.500
                            Three-body k3    0.0000000    eV*rad^-3 
--------------------------------------------------------------------------------

********************************************************************************
*  Output for configuration   1                                                *
********************************************************************************


  Components of energy : 

--------------------------------------------------------------------------------
  Interatomic potentials     =          91.44259210 eV    
  Three-body potentials      =           0.00168875 eV    
  Monopole - monopole (real) =        -206.70573839 eV    
  Monopole - monopole (recip)=        -266.74885854 eV    
  Monopole - monopole (total)=        -473.45459693 eV    
--------------------------------------------------------------------------------
  Total lattice energy       =        -382.01031608 eV    
--------------------------------------------------------------------------------
  Total lattice energy       =          -36858.1559 kJ/(mole unit cells)
--------------------------------------------------------------------------------


  Number of variables =        9

  Maximum number of calculations  =          1000
  Maximum Hessian update interval =            10
  Maximum step size               =   1.000000000
  Maximum parameter tolerance     =   0.000010000
  Maximum function  tolerance     =   0.000010000
  Maximum gradient  tolerance     =   0.001000000
  Maximum gradient  component     =   0.010000000

  Symmetry constrained optimisation

  Symmetry used for second derivatives

  Cell parameters to be optimised using strains

  Newton-Raphson optimiser to be used

  BFGS hessian update to be used

  Lower half triangular hessian to be used

  Dumpfile to be written after every cycle

  Start of bulk optimisation :

  Cycle:      0 Energy:      -382.010316  Gnorm:     51.727954  CPU:    0.007
  ** Hessian calculated **
  Cycle:      1 Energy:      -385.567672  Gnorm:     10.022775  CPU:    0.009
  Cycle:      2 Energy:      -385.766467  Gnorm:      4.839619  CPU:    0.011
  Cycle:      3 Energy:      -385.891053  Gnorm:      2.457017  CPU:    0.013
  Cycle:      4 Energy:      -385.914307  Gnorm:      1.283310  CPU:    0.015
  Cycle:      5 Energy:      -385.934719  Gnorm:      1.480008  CPU:    0.017
  Cycle:      6 Energy:      -385.965163  Gnorm:      0.851145  CPU:    0.019
  Cycle:      7 Energy:      -385.970404  Gnorm:      0.400057  CPU:    0.021
  Cycle:      8 Energy:      -385.974054  Gnorm:      0.238147  CPU:    0.023
  Cycle:      9 Energy:      -385.975733  Gnorm:      0.132508  CPU:    0.026
  Cycle:     10 Energy:      -385.976785  Gnorm:      0.109630  CPU:    0.028
  ** Hessian calculated **
  Cycle:     11 Energy:      -385.977584  Gnorm:      0.006544  CPU:    0.031


  **** Optimisation achieved ****


  Final energy =    -385.97758393 eV
  Final Gnorm  =       0.00004287

  Components of energy : 

--------------------------------------------------------------------------------
  Interatomic potentials     =         105.67732223 eV    
  Three-body potentials      =           0.05074449 eV    
  Monopole - monopole (real) =        -113.12115583 eV    
  Monopole - monopole (recip)=        -378.58449481 eV    
  Monopole - monopole (total)=        -491.70565064 eV    
--------------------------------------------------------------------------------
  Total lattice energy       =        -385.97758393 eV    
--------------------------------------------------------------------------------
  Total lattice energy       =          -37240.9366 kJ/(mole unit cells)
--------------------------------------------------------------------------------

  Final asymmetric unit coordinates :

--------------------------------------------------------------------------------
   No.  Atomic        x           y           z         Radius
        Label       (Frac)      (Frac)      (Frac)       (Angs) 
--------------------------------------------------------------------------------
     1  Si    c     0.467287    0.000000    0.000000    0.000000
     2  O     c     0.411033    0.272260    0.114386    0.000000
     3  O     s     0.430027    0.270737    0.124880    0.000000
--------------------------------------------------------------------------------

  Final Cartesian lattice vectors (Angstroms) :

        4.870694    0.000000    0.000000
       -2.435347    4.218145    0.000000
        0.000000    0.000000    5.377835


  Final cell parameters and derivatives :

--------------------------------------------------------------------------------
       a            4.870694 Angstrom     dE/de1(xx)    -0.000011 eV/strain
       b            4.870694 Angstrom     dE/de2(yy)     0.000000 eV/strain
       c            5.377835 Angstrom     dE/de3(zz)     0.000011 eV/strain
       alpha       90.000000 Degrees      dE/de4(yz)     0.000000 eV/strain
       beta        90.000000 Degrees      dE/de5(xz)     0.000000 eV/strain
       gamma      120.000000 Degrees      dE/de6(xy)     0.000000 eV/strain
--------------------------------------------------------------------------------

  Primitive cell volume =           110.489207 Angs**3

  Density of cell =      2.709316 g/cm**3

  Non-primitive cell volume =           110.489207 Angs**3


  Final internal derivatives :

--------------------------------------------------------------------------------
   No.  Atomic          a             b             c           Radius
        Label          (eV)          (eV)          (eV)        (eV/Angs)
--------------------------------------------------------------------------------
      1 Si    c       0.000144      0.000000      0.000000      0.000000
      2 O     c      -0.000047      0.000321     -0.000029      0.000000
      3 O     s      -0.000119     -0.000086     -0.000014      0.000000
--------------------------------------------------------------------------------
  Maximum abs         0.000144      0.000321      0.000029      0.000000
--------------------------------------------------------------------------------


  Born effective charge tensors : 

-------------------------------------------------------------------------------
  Atom             x           y             z
-------------------------------------------------------------------------------
    1 Si    x       3.1220     -0.0000      0.0000
            y      -0.0000      3.5304     -0.2917
            z      -0.0000      0.1712      3.4215
-------------------------------------------------------------------------------
    2 O     x      -1.4062      0.3679      0.2519
            y       0.3639     -1.9200     -0.5168
            z       0.1764     -0.5677     -1.7107
-------------------------------------------------------------------------------




  Elastic Constant Matrix: (Units=GPa)

-------------------------------------------------------------------------------
  Indices      1         2         3         4         5         6    
-------------------------------------------------------------------------------
       1     95.3341   14.6172   17.9949   15.8821   -0.0000   -0.0000
       2     14.6172   95.3341   17.9949  -15.8821   -0.0000   -0.0000
       3     17.9949   17.9949  112.8774   -0.0000    0.0000   -0.0000
       4     15.8821  -15.8821   -0.0000   49.9582    0.0000   -0.0000
       5     -0.0000   -0.0000    0.0000    0.0000   49.9582   15.8821
       6     -0.0000   -0.0000   -0.0000   -0.0000   15.8821   40.3584
-------------------------------------------------------------------------------


  Elastic Compliance Matrix: (Units=1/GPa)

-------------------------------------------------------------------------------
  Indices      1         2         3         4         5         6    
-------------------------------------------------------------------------------
       1    0.011878 -0.002282 -0.001530 -0.004502  0.000000  0.000000
       2   -0.002282  0.011878 -0.001530  0.004502 -0.000000  0.000000
       3   -0.001530 -0.001530  0.009347  0.000000 -0.000000 -0.000000
       4   -0.004502  0.004502  0.000000  0.022879 -0.000000  0.000000
       5    0.000000 -0.000000 -0.000000 -0.000000  0.022879 -0.009003
       6    0.000000  0.000000 -0.000000  0.000000 -0.009003  0.028321
-------------------------------------------------------------------------------

  Mechanical properties :

-------------------------------------------------------------------------------
  Convention :                    Reuss         Voigt         Hill
-------------------------------------------------------------------------------
  Bulk  Modulus (GPa)     =      44.60448      44.97328      44.78888
  Shear Modulus (GPa)     =      39.89177      44.91753      42.40465
-------------------------------------------------------------------------------
  Velocity S-wave (km/s)  =       3.83718       4.07172       3.95619
  Velocity P-wave (km/s)  =       6.00793       6.22131       6.11555
-------------------------------------------------------------------------------
  Compressibility (1/GPa) =    0.02241927
-------------------------------------------------------------------------------
  Stress axis :                     x             y             z
-------------------------------------------------------------------------------
  Youngs Moduli (GPa)     =      84.18858      84.18858     106.98724
-------------------------------------------------------------------------------
  Poissons Ratio (x)      =                     0.19216       0.16366
  Poissons Ratio (y)      =       0.19216                     0.16366
  Poissons Ratio (z)      =       0.12879       0.12879
-------------------------------------------------------------------------------


  Piezoelectric Strain Matrix: (Units=C/m**2)

-------------------------------------------------------------------------------
  Indices      1         2         3         4         5         6    
-------------------------------------------------------------------------------
       x     2.60894  -2.60894  -0.00000   1.07303   0.00000  -0.00000
       y    -0.00000  -0.00000  -0.00000  -0.00000  -1.07303  -2.60894
       z     0.00000  -0.00000  -0.00000   0.00000   0.00000   0.00000
-------------------------------------------------------------------------------


  Piezoelectric Stress Matrix: (Units=10**-11 C/N)

-------------------------------------------------------------------------------
  Indices      1         2         3         4         5         6    
-------------------------------------------------------------------------------
       x     3.21135  -3.21135  -0.00000   0.10602   0.00000  -0.00000
       y    -0.00000  -0.00000  -0.00000  -0.00000  -0.10602  -6.42271
       z     0.00000  -0.00000  -0.00000   0.00000   0.00000   0.00000
-------------------------------------------------------------------------------


  Static dielectric constant tensor : 

-------------------------------------------------------------------------------
              x         y         z
-------------------------------------------------------------------------------
       x     4.57895  -0.00000   0.00000
       y    -0.00000   4.57895  -0.00000
       z     0.00000  -0.00000   4.88248
--------------------------------------------------------------------------------

  High frequency dielectric constant tensor : 

-------------------------------------------------------------------------------
              x         y         z
-------------------------------------------------------------------------------
       x     2.06638  -0.00000  -0.00000
       y    -0.00000   2.06638   0.00000
       z    -0.00000   0.00000   2.08760
-------------------------------------------------------------------------------

  Static refractive indices : 

-------------------------------------------------------------------------------
    1 =    2.13985      2 =    2.13985      3 =    2.20963
-------------------------------------------------------------------------------

  High frequency refractive indices : 

-------------------------------------------------------------------------------
    1 =    1.43749      2 =    1.43749      3 =    1.44485
-------------------------------------------------------------------------------


  Phonon Calculation : 

  Number of k points for this configuration =        1

--------------------------------------------------------------------------------
  K point      1 =   0.000000  0.000000  0.000000  Weight =    1.000
--------------------------------------------------------------------------------

  Frequencies (cm-1) : 

   -0.00    0.00    0.00  143.09  143.11  213.16  268.93  270.68  340.71
  351.05  396.36  399.53  437.37  454.37  472.24  528.22  715.54  716.68
  816.59  818.96  836.49  898.16  900.20  906.68 1016.56 1021.78 1115.84


--------------------------------------------------------------------------------

  Frequency dependent properties : 

  Damping factor =    10.000000 cm-1 

-------------------------------------------------------------------------------
  Omega              Dielectric tensor (real/imaginary)         Reflectivity
  (cm-1)     11       12       22       13       23       33
-------------------------------------------------------------------------------
   50.00   4.6055  -0.0000   4.6055   0.0000  -0.0000   4.9165     0.1432
           0.0054  -0.0000   0.0054   0.0000  -0.0000   0.0069
  100.00   4.6910  -0.0000   4.6910   0.0000  -0.0000   5.0264     0.1468
           0.0121  -0.0000   0.0121   0.0000  -0.0000   0.0155
  150.00   4.8460  -0.0000   4.8460   0.0000  -0.0000   5.2418     0.1537
           0.0266  -0.0000   0.0266   0.0000  -0.0000   0.0288
  200.00   5.1571  -0.0000   5.1571   0.0000  -0.0000   5.6433     0.1661
           0.0434  -0.0000   0.0434   0.0000  -0.0000   0.0553
  250.00   6.0524  -0.0000   6.0524   0.0000  -0.0000   6.4995     0.1906
           0.2470   0.0000   0.2470   0.0000  -0.0000   0.1337
  300.00   5.4846  -0.0000   5.4846  -0.0000   0.0000   9.5648     0.2624
           0.1705  -0.0000   0.1705   0.0000  -0.0000   0.7513
  350.00   7.3524  -0.0000   7.3524   0.0000  -0.0000  -3.8649     0.6264
           0.2848   0.0000   0.2848  -0.0000   0.0000   2.7294
  400.00   6.1614  -0.0000   6.1614  -0.0000   0.0000   3.4098     0.0894
           6.6439   0.0000   6.6439   0.0000  -0.0000   0.2936
  450.00 -14.7007  -0.0000 -14.7007   0.0000  -0.0000   6.6538     0.1956
           7.0300   0.0000   7.0300  -0.0000   0.0000   0.5124
  500.00  -0.6872  -0.0000  -0.6872  -0.0000   0.0000 -14.3534     0.6955
           0.3598  -0.0000   0.3598   0.0000  -0.0000  29.7359
  550.00   1.4113  -0.0000   1.4113  -0.0000   0.0000  -0.3686     0.4541
           0.1292  -0.0000   0.1292   0.0000  -0.0000   0.3871
  600.00   2.4055  -0.0000   2.4055   0.0000  -0.0000   1.7839     0.0212
           0.0810  -0.0000   0.0810   0.0000  -0.0000   0.1311
  650.00   3.1614  -0.0000   3.1614   0.0000  -0.0000   2.8343     0.0650
           0.0754  -0.0000   0.0754  -0.0000   0.0000   0.0914
  700.00   4.0698  -0.0000   4.0698  -0.0000   0.0000   3.7656     0.1024
           0.1430  -0.0000   0.1430  -0.0000   0.0000   0.1024
  750.00   5.0568  -0.0000   5.0568   0.0000  -0.0000   5.1002     0.1493
           0.1866  -0.0000   0.1866   0.0000  -0.0000   0.1876
  800.00   9.3552  -0.0000   9.3552   0.0000  -0.0000   9.3952     0.2606
           1.4082   0.0000   1.4082   0.0000  -0.0000   1.2239
  850.00   6.8008   0.0000   6.8008   0.0000  -0.0000   3.5784     0.1074
           1.0352  -0.0000   1.0352  -0.0000   0.0000   1.1208
  900.00   3.7509   0.0000   3.7509   0.0000  -0.0000  25.8805     0.4758
          71.8601  -0.0000  71.8601   0.0000  -0.0000  11.4619
  950.00  -5.6707  -0.0000  -5.6707  -0.0000   0.0000  -7.5930     0.9084
           0.7491   0.0000   0.7491   0.0000  -0.0000   1.1517
 1000.00  -1.7180  -0.0000  -1.7180  -0.0000   0.0000  -2.4938     0.9180
           0.2656   0.0000   0.2656  -0.0000   0.0000   0.2368
 1050.00  -0.9587  -0.0000  -0.9587   0.0000  -0.0000  -0.9489     0.8983
           0.1327  -0.0000   0.1327  -0.0000   0.0000   0.1022
 1100.00  -0.1253  -0.0000  -0.1253   0.0000  -0.0000  -0.1845     0.8002
           0.0576   0.0000   0.0576  -0.0000   0.0000   0.0575
 1150.00   0.3291  -0.0000   0.3291   0.0000  -0.0000   0.2774     0.0960
           0.0361   0.0000   0.0361  -0.0000   0.0000   0.0372
 1200.00   0.6303  -0.0000   0.6303   0.0000  -0.0000   0.5886     0.0174
           0.0252   0.0000   0.0252  -0.0000   0.0000   0.0261
 1250.00   0.8468  -0.0000   0.8468   0.0000  -0.0000   0.8134     0.0027
           0.0186   0.0000   0.0186  -0.0000   0.0000   0.0194
 1300.00   1.0104  -0.0000   1.0104   0.0000  -0.0000   0.9837     0.0000
           0.0144   0.0000   0.0144  -0.0000   0.0000   0.0150
 1350.00   1.1386  -0.0000   1.1386   0.0000  -0.0000   1.1173     0.0008
           0.0114   0.0000   0.0114  -0.0000   0.0000   0.0119
 1400.00   1.2418  -0.0000   1.2418   0.0000  -0.0000   1.2249     0.0026
           0.0093   0.0000   0.0093  -0.0000   0.0000   0.0097
 1450.00   1.3266   0.0000   1.3266   0.0000  -0.0000   1.3133     0.0046
           0.0077   0.0000   0.0077  -0.0000   0.0000   0.0081
 1500.00   1.3975   0.0000   1.3975   0.0000  -0.0000   1.3874     0.0067
           0.0065   0.0000   0.0065  -0.0000   0.0000   0.0068
 1550.00   1.4576   0.0000   1.4576   0.0000  -0.0000   1.4502     0.0086
           0.0056   0.0000   0.0056  -0.0000   0.0000   0.0058
 1600.00   1.5092   0.0000   1.5092   0.0000  -0.0000   1.5040     0.0103
           0.0048  -0.0000   0.0048  -0.0000   0.0000   0.0050
 1650.00   1.5539   0.0000   1.5539  -0.0000   0.0000   1.5508     0.0119
           0.0042  -0.0000   0.0042  -0.0000   0.0000   0.0044
 1700.00   1.5929   0.0000   1.5929  -0.0000   0.0000   1.5916     0.0134
           0.0037  -0.0000   0.0037  -0.0000   0.0000   0.0038
 1750.00   1.6274   0.0000   1.6274  -0.0000   0.0000   1.6276     0.0147
           0.0032  -0.0000   0.0032  -0.0000   0.0000   0.0034
 1800.00   1.6579   0.0000   1.6579  -0.0000   0.0000   1.6595     0.0159
           0.0029  -0.0000   0.0029  -0.0000   0.0000   0.0030
 1850.00   1.6851   0.0000   1.6851  -0.0000   0.0000   1.6880     0.0169
           0.0026  -0.0000   0.0026  -0.0000   0.0000   0.0027
 1900.00   1.7095  -0.0000   1.7095  -0.0000   0.0000   1.7135     0.0179
           0.0023  -0.0000   0.0023  -0.0000   0.0000   0.0024
 1950.00   1.7315  -0.0000   1.7315  -0.0000   0.0000   1.7365     0.0188
           0.0021  -0.0000   0.0021  -0.0000   0.0000   0.0022
 2000.00   1.7514  -0.0000   1.7514  -0.0000   0.0000   1.7574     0.0196
           0.0019  -0.0000   0.0019  -0.0000   0.0000   0.0020
 2050.00   1.7695  -0.0000   1.7695  -0.0000   0.0000   1.7763     0.0203
           0.0017  -0.0000   0.0017  -0.0000   0.0000   0.0018
 2100.00   1.7859  -0.0000   1.7859  -0.0000   0.0000   1.7935     0.0210
           0.0016  -0.0000   0.0016  -0.0000   0.0000   0.0016
 2150.00   1.8010  -0.0000   1.8010  -0.0000   0.0000   1.8093     0.0217
           0.0014  -0.0000   0.0014  -0.0000   0.0000   0.0015
 2200.00   1.8149  -0.0000   1.8149  -0.0000   0.0000   1.8238     0.0222
           0.0013  -0.0000   0.0013   0.0000  -0.0000   0.0014
 2250.00   1.8276  -0.0000   1.8276  -0.0000   0.0000   1.8372     0.0228
           0.0012  -0.0000   0.0012   0.0000  -0.0000   0.0013
 2300.00   1.8393  -0.0000   1.8393  -0.0000   0.0000   1.8495     0.0233
           0.0011  -0.0000   0.0011   0.0000  -0.0000   0.0012
 2350.00   1.8502  -0.0000   1.8502  -0.0000   0.0000   1.8609     0.0237
           0.0010  -0.0000   0.0010   0.0000  -0.0000   0.0011
 2400.00   1.8603  -0.0000   1.8603  -0.0000   0.0000   1.8714     0.0242
           0.0010  -0.0000   0.0010   0.0000  -0.0000   0.0010
 2450.00   1.8696  -0.0000   1.8696  -0.0000   0.0000   1.8812     0.0245
           0.0009  -0.0000   0.0009   0.0000  -0.0000   0.0009
 2500.00   1.8784  -0.0000   1.8784  -0.0000   0.0000   1.8903     0.0249
           0.0008  -0.0000   0.0008   0.0000  -0.0000   0.0009
 2550.00   1.8865  -0.0000   1.8865  -0.0000   0.0000   1.8989     0.0253
           0.0008  -0.0000   0.0008   0.0000  -0.0000   0.0008
 2600.00   1.8941  -0.0000   1.8941  -0.0000   0.0000   1.9068     0.0256
           0.0007  -0.0000   0.0007   0.0000  -0.0000   0.0008
 2650.00   1.9012  -0.0000   1.9012  -0.0000   0.0000   1.9143     0.0259
           0.0007  -0.0000   0.0007   0.0000  -0.0000   0.0007
 2700.00   1.9078  -0.0000   1.9078  -0.0000   0.0000   1.9213     0.0262
           0.0006  -0.0000   0.0006   0.0000  -0.0000   0.0007
 2750.00   1.9141  -0.0000   1.9141  -0.0000   0.0000   1.9278     0.0265
           0.0006  -0.0000   0.0006   0.0000  -0.0000   0.0006
 2800.00   1.9200  -0.0000   1.9200  -0.0000   0.0000   1.9340     0.0267
           0.0006  -0.0000   0.0006   0.0000  -0.0000   0.0006
 2850.00   1.9255  -0.0000   1.9255  -0.0000   0.0000   1.9398     0.0269
           0.0005  -0.0000   0.0005   0.0000  -0.0000   0.0006
 2900.00   1.9307  -0.0000   1.9307  -0.0000   0.0000   1.9453     0.0272
           0.0005  -0.0000   0.0005   0.0000  -0.0000   0.0005
 2950.00   1.9357  -0.0000   1.9357  -0.0000   0.0000   1.9504     0.0274
           0.0005  -0.0000   0.0005   0.0000  -0.0000   0.0005
 3000.00   1.9403  -0.0000   1.9403  -0.0000   0.0000   1.9553     0.0276
           0.0005  -0.0000   0.0005   0.0000  -0.0000   0.0005
 3050.00   1.9447  -0.0000   1.9447  -0.0000   0.0000   1.9599     0.0278
           0.0004  -0.0000   0.0004   0.0000  -0.0000   0.0004
 3100.00   1.9489  -0.0000   1.9489  -0.0000   0.0000   1.9643     0.0280
           0.0004  -0.0000   0.0004   0.0000  -0.0000   0.0004
 3150.00   1.9529  -0.0000   1.9529  -0.0000   0.0000   1.9685     0.0281
           0.0004  -0.0000   0.0004   0.0000  -0.0000   0.0004
 3200.00   1.9566  -0.0000   1.9566  -0.0000   0.0000   1.9724     0.0283
           0.0004  -0.0000   0.0004   0.0000  -0.0000   0.0004
 3250.00   1.9602  -0.0000   1.9602  -0.0000   0.0000   1.9762     0.0284
           0.0003  -0.0000   0.0003   0.0000  -0.0000   0.0004
 3300.00   1.9636  -0.0000   1.9636  -0.0000   0.0000   1.9797     0.0286
           0.0003  -0.0000   0.0003   0.0000  -0.0000   0.0003
 3350.00   1.9668  -0.0000   1.9668  -0.0000   0.0000   1.9831     0.0287
           0.0003  -0.0000   0.0003   0.0000  -0.0000   0.0003
 3400.00   1.9699  -0.0000   1.9699  -0.0000   0.0000   1.9863     0.0289
           0.0003  -0.0000   0.0003   0.0000  -0.0000   0.0003
 3450.00   1.9728  -0.0000   1.9728  -0.0000   0.0000   1.9894     0.0290
           0.0003  -0.0000   0.0003   0.0000  -0.0000   0.0003
 3500.00   1.9756  -0.0000   1.9756  -0.0000   0.0000   1.9924     0.0291
           0.0003  -0.0000   0.0003   0.0000  -0.0000   0.0003
 3550.00   1.9783  -0.0000   1.9783  -0.0000   0.0000   1.9952     0.0292
           0.0003  -0.0000   0.0003   0.0000  -0.0000   0.0003
 3600.00   1.9809  -0.0000   1.9809  -0.0000   0.0000   1.9979     0.0293
           0.0002  -0.0000   0.0002   0.0000  -0.0000   0.0003
 3650.00   1.9833  -0.0000   1.9833  -0.0000   0.0000   2.0004     0.0295
           0.0002  -0.0000   0.0002   0.0000  -0.0000   0.0003
 3700.00   1.9857  -0.0000   1.9857  -0.0000   0.0000   2.0029     0.0296
           0.0002  -0.0000   0.0002   0.0000  -0.0000   0.0002
 3750.00   1.9879  -0.0000   1.9879  -0.0000   0.0000   2.0052     0.0297
           0.0002  -0.0000   0.0002   0.0000  -0.0000   0.0002
 3800.00   1.9901  -0.0000   1.9901  -0.0000   0.0000   2.0075     0.0297
           0.0002  -0.0000   0.0002   0.0000  -0.0000   0.0002
 3850.00   1.9921  -0.0000   1.9921  -0.0000   0.0000   2.0096     0.0298
           0.0002  -0.0000   0.0002   0.0000  -0.0000   0.0002
 3900.00   1.9941  -0.0000   1.9941  -0.0000   0.0000   2.0117     0.0299
           0.0002  -0.0000   0.0002   0.0000  -0.0000   0.0002
 3950.00   1.9960  -0.0000   1.9960  -0.0000   0.0000   2.0137     0.0300
           0.0002  -0.0000   0.0002   0.0000  -0.0000   0.0002
 4000.00   1.9978  -0.0000   1.9978  -0.0000   0.0000   2.0156     0.0301
           0.0002  -0.0000   0.0002   0.0000  -0.0000   0.0002
 4050.00   1.9996  -0.0000   1.9996  -0.0000   0.0000   2.0175     0.0302
           0.0002  -0.0000   0.0002   0.0000  -0.0000   0.0002
 4100.00   2.0012  -0.0000   2.0012  -0.0000   0.0000   2.0192     0.0302
           0.0002  -0.0000   0.0002   0.0000  -0.0000   0.0002
 4150.00   2.0029  -0.0000   2.0029  -0.0000   0.0000   2.0209     0.0303
           0.0002  -0.0000   0.0002   0.0000  -0.0000   0.0002
 4200.00   2.0044  -0.0000   2.0044  -0.0000   0.0000   2.0226     0.0304
           0.0002  -0.0000   0.0002   0.0000  -0.0000   0.0002
 4250.00   2.0059  -0.0000   2.0059  -0.0000   0.0000   2.0241     0.0304
           0.0001  -0.0000   0.0001   0.0000  -0.0000   0.0002
 4300.00   2.0074  -0.0000   2.0074  -0.0000   0.0000   2.0257     0.0305
           0.0001  -0.0000   0.0001   0.0000  -0.0000   0.0001
 4350.00   2.0088  -0.0000   2.0088  -0.0000   0.0000   2.0271     0.0306
           0.0001  -0.0000   0.0001   0.0000  -0.0000   0.0001
 4400.00   2.0101  -0.0000   2.0101  -0.0000   0.0000   2.0285     0.0306
           0.0001  -0.0000   0.0001   0.0000  -0.0000   0.0001
 4450.00   2.0114  -0.0000   2.0114  -0.0000   0.0000   2.0299     0.0307
           0.0001  -0.0000   0.0001   0.0000  -0.0000   0.0001
 4500.00   2.0127  -0.0000   2.0127  -0.0000   0.0000   2.0312     0.0307
           0.0001  -0.0000   0.0001   0.0000  -0.0000   0.0001
 4550.00   2.0139  -0.0000   2.0139  -0.0000   0.0000   2.0325     0.0308
           0.0001  -0.0000   0.0001   0.0000  -0.0000   0.0001
 4600.00   2.0151  -0.0000   2.0151  -0.0000   0.0000   2.0337     0.0308
           0.0001  -0.0000   0.0001   0.0000  -0.0000   0.0001
 4650.00   2.0162  -0.0000   2.0162  -0.0000   0.0000   2.0349     0.0309
           0.0001  -0.0000   0.0001   0.0000  -0.0000   0.0001
 4700.00   2.0173  -0.0000   2.0173  -0.0000   0.0000   2.0361     0.0309
           0.0001  -0.0000   0.0001   0.0000  -0.0000   0.0001
 4750.00   2.0183  -0.0000   2.0183  -0.0000   0.0000   2.0372     0.0310
           0.0001  -0.0000   0.0001   0.0000  -0.0000   0.0001
 4800.00   2.0194  -0.0000   2.0194  -0.0000   0.0000   2.0382     0.0310
           0.0001  -0.0000   0.0001   0.0000  -0.0000   0.0001
 4850.00   2.0204  -0.0000   2.0204  -0.0000   0.0000   2.0393     0.0311
           0.0001  -0.0000   0.0001   0.0000  -0.0000   0.0001
 4900.00   2.0213  -0.0000   2.0213  -0.0000   0.0000   2.0403     0.0311
           0.0001  -0.0000   0.0001   0.0000  -0.0000   0.0001
 4950.00   2.0222  -0.0000   2.0222  -0.0000   0.0000   2.0413     0.0312
           0.0001  -0.0000   0.0001   0.0000  -0.0000   0.0001
 5000.00   2.0231  -0.0000   2.0231  -0.0000   0.0000   2.0422     0.0312
           0.0001  -0.0000   0.0001   0.0000  -0.0000   0.0001
-------------------------------------------------------------------------------

  Phonon properties (per mole of unit cells): Temperature =      0.000 K
--------------------------------------------------------------------------------
  Zero point energy            =        0.879196 eV
--------------------------------------------------------------------------------

  Time to end of optimisation =       0.0700 seconds


  Peak dynamic memory used =       1.89 MB 


  Timing analysis for GULP :

--------------------------------------------------------------------------------
  Task / Subroutine                                          Time (Seconds)
--------------------------------------------------------------------------------
  Calculation of reciprocal space energy and derivatives          0.0016
  Calculation of reciprocal space energy using symmetry           0.0033
  Calculation of real space energy and derivatives                0.0055
  Calculation of real space energy using symmetry                 0.0180
  Calculation of three-body energy and derivatives                0.0020
  Calculation of phonons                                          0.0322
  Symmetry generation of equivalent positions                     0.0004
--------------------------------------------------------------------------------
  Total CPU time                                                  0.0700
--------------------------------------------------------------------------------


  Dump file written as example36.grs


  Job Finished at 11:50.30  8th July       2020                               

