********************************************************************************
*                       GENERAL UTILITY LATTICE PROGRAM                        *
*                                 Julian Gale                                  *
*                       Curtin Institute for Computation                       *
*                    School of Molecular and Life Sciences                     *
*                    Curtin University, Western Australia                      *
********************************************************************************
* Version = 6.0.0 * Last modified =   7th July 2020                            *
********************************************************************************
*  optimise     - perform optimisation run                                     *
*  conv         - constant volume calculation                                  *
*  property     - calculate properties for final geometry                      *
*  phonon       - calculate phonons for final geometry                         *
*  potential    - calculate electrostatic site potentials                      *
*  molmec       - molecule option activated, Coulomb subtract 1-2/1-3 terms    *
*  noautobond   - do not compute bonds based on covalent radii                 *
********************************************************************************

  Job Started  at 11:50.42  8th July       2020                               

  Number of CPUs =     1

  Host name      = M-A0034725                              


  Total number of configurations input =      1

********************************************************************************
*  Input for Configuration =   1                                               *
********************************************************************************

  Formula = H10C8                                                       

  Number of irreducible atoms/shells =      18


  Total number atoms/shells =      18

  Dimensionality = 0               :  Cluster


  Charge on cluster =  -0.001000


  Initial cluster dipoles : x =     -0.044419 e.Angs
                            y =     -0.027827 e.Angs
                            z =     -0.046289 e.Angs

  Temperature of configuration =   0.00     K 

  Symmetry number =      1

  Cartesian coordinates of cluster :

--------------------------------------------------------------------------------
   No.  Atomic       x           y          z         Charge      Occupancy
        Label      (Angs)      (Angs)     (Angs)        (e)         (Frac)  
--------------------------------------------------------------------------------
      1 H1    c      0.0000 *    0.0000 *    0.0000 *   0.08300    1.000000    
      2 C1    c      1.1187 *    0.0000 *    0.0000 *  -0.17900    1.000000    
      3 H1    c      1.4700 *    1.0608 *    0.0000 *   0.08000    1.000000    
      4 H1    c      1.4667 *   -0.4848 *   -0.9467 *   0.08500    1.000000    
      5 C2    c      1.6365 *   -0.7425 *    1.1721 *  -0.06700    1.000000    
      6 C2    c      1.1899     -2.0445      1.4255    -0.13300    1.000000    
      7 C2    c      1.6886 *   -2.7575 *    2.5192 *  -0.06600    1.000000    
      8 C2    c      2.6299 *   -2.1690 *    3.3642 *  -0.13400    1.000000    
      9 C2    c      3.0739 *   -0.8704 *    3.1194 *  -0.12400    1.000000    
     10 C2    c      2.5815 *   -0.1575 *    2.0254 *  -0.13500    1.000000    
     11 H1    c      0.4431 *   -2.5061 *    0.7635 *   0.13100    1.000000    
     12 H1    c      3.8132 *   -0.4033 *    3.7859 *   0.13000    1.000000    
     13 H1    c      2.9310 *    0.8662 *    1.8296 *   0.13000    1.000000    
     14 H1    c      3.0286 *   -2.7323 *    4.2208 *   0.13000    1.000000    
     15 C1    c      1.2042 *   -4.1356 *    2.7731 *  -0.18000    1.000000    
     16 H1    c      1.4099 *   -4.7892 *    1.8892 *   0.08400    1.000000    
     17 H1    c      0.1005 *   -4.1313 *    2.9544 *   0.08400    1.000000    
     18 H1    c      1.7043 *   -4.5845 *    3.6643 *   0.08000    1.000000    
--------------------------------------------------------------------------------



  Molecule list generated from bond lengths :

  Total number of molecules =     1

--------------------------------------------------------------------------------
Molecule No./:  Atoms
Periodicity  :  
--------------------------------------------------------------------------------
     1  0    : H1   c     1 C1   c     2 H1   c     3 H1   c     4 C2   c     5
             : C2   c     6 C2   c     7 C2   c     8 C2   c     9 C2   c    10
             : H1   c    11 H1   c    12 H1   c    13 H1   c    14 C1   c    15
             : H1   c    16 H1   c    17 H1   c    18
--------------------------------------------------------------------------------

  Brillouin zone sampling points :

--------------------------------------------------------------------------------
  Point number          x          y          z            Weight
--------------------------------------------------------------------------------
        1           0.000000   0.000000   0.000000     1.00000000
--------------------------------------------------------------------------------


********************************************************************************
*  General input information                                                   *
********************************************************************************

  Species output for all configurations : 

--------------------------------------------------------------------------------
  Species    Type    Atomic    Atomic    Charge       Radii (Angs)     Library
                     Number     Mass       (e)     Cova   Ionic  VDW   Symbol
--------------------------------------------------------------------------------
    C1       Core        6      12.01   0.000000   0.770  0.000  1.530 C_3      
    C2       Core        6      12.01   0.000000   0.770  0.000  1.530 C_R      
    H1       Core        1       1.01   0.000000   0.370  0.000  1.080 H_       
--------------------------------------------------------------------------------


  Universal Force Field (UFF) species output: 

--------------------------------------------------------------------------------
  Species    Type    Radius    Theta    Distance    Energy     Zeta     Zeff    
                     (Ang)   (degrees)   (Ang)       (eV)               (e)     
--------------------------------------------------------------------------------
    H1       Core    0.3540   180.000     2.8860    0.0019   12.0000   0.7120
    C1       Core    0.7570   109.471     3.8510    0.0046   12.7300   1.9120
    C2       Core    0.7290   120.000     3.8510    0.0046   12.7300   1.9120
--------------------------------------------------------------------------------


  Accuracy factor for short range sums = 12.000

  Electrostatics method = Direct Coulomb

  Analytic derivatives to be used

  Time limit = Infinity

  Maximum range for interatomic potentials =    100000.000000 Angstroms

  General interatomic potentials :

--------------------------------------------------------------------------------
Atom  Types   Potential      Parameter       Value         Units   Cutoffs(Ang)
  1     2                                                            Min /  Max 
--------------------------------------------------------------------------------
C1   c C1   c Lennard       Lennard-Jones A  48440.117    eV*Ang^m  3Bond 10.000
                            Lennard-Jones B  29.702573    eV*Ang^n  
                            Exponent m        12          None
                            Exponent n         6          None
--------------------------------------------------------------------------------
C1   c C2   c Lennard       Lennard-Jones A  48440.117    eV*Ang^m  3Bond 10.000
                            Lennard-Jones B  29.702573    eV*Ang^n  
                            Exponent m        12          None
                            Exponent n         6          None
--------------------------------------------------------------------------------
H1   c C1   c Lennard       Lennard-Jones A  5554.8677    eV*Ang^m  3Bond 10.000
                            Lennard-Jones B  8.0927138    eV*Ang^n  
                            Exponent m        12          None
                            Exponent n         6          None
--------------------------------------------------------------------------------
C2   c C2   c Lennard       Lennard-Jones A  48440.117    eV*Ang^m  3Bond 10.000
                            Lennard-Jones B  29.702573    eV*Ang^n  
                            Exponent m        12          None
                            Exponent n         6          None
--------------------------------------------------------------------------------
H1   c C2   c Lennard       Lennard-Jones A  5554.8677    eV*Ang^m  3Bond 10.000
                            Lennard-Jones B  8.0927138    eV*Ang^n  
                            Exponent m        12          None
                            Exponent n         6          None
--------------------------------------------------------------------------------
H1   c H1   c Lennard       Lennard-Jones A  637.00415    eV*Ang^m  3Bond 10.000
                            Lennard-Jones B  2.2049274    eV*Ang^n  
                            Exponent m        12          None
                            Exponent n         6          None
--------------------------------------------------------------------------------

  Intramolecular potentials :

--------------------------------------------------------------------------------
Atom  Types   Potential      Parameter       Value         Units   Cutoffs(Ang)
  1     2                                                            Min /  Max 
--------------------------------------------------------------------------------
C1   c C1   c Harmonic      Harmonic k2      30.337401    eV*Ang^-2 0.000 1 Bond
                            Harmonic r0      1.5140000    Ang       
                            Harmonic k3      0.0000000    eV*Ang^-3 
                            Harmonic k4      0.0000000    eV*Ang^-4 
                                                                    single   cyc
--------------------------------------------------------------------------------
C1   c C2   c Harmonic      Harmonic k2      32.084817    eV*Ang^-2 0.000 1 Bond
                            Harmonic r0      1.4860000    Ang       
                            Harmonic k3      0.0000000    eV*Ang^-3 
                            Harmonic k4      0.0000000    eV*Ang^-4 
                                                                    single   cyc
--------------------------------------------------------------------------------
H1   c C1   c Harmonic      Harmonic k2      28.713272    eV*Ang^-2 0.000 1 Bond
                            Harmonic r0      1.1094008    Ang       
                            Harmonic k3      0.0000000    eV*Ang^-3 
                            Harmonic k4      0.0000000    eV*Ang^-4 
                                                                    single   cyc
--------------------------------------------------------------------------------
C2   c C2   c Harmonic      Harmonic k2      33.969052    eV*Ang^-2 0.000 1 Bond
                            Harmonic r0      1.4580000    Ang       
                            Harmonic k3      0.0000000    eV*Ang^-3 
                            Harmonic k4      0.0000000    eV*Ang^-4 
                                                                    single   cyc
--------------------------------------------------------------------------------
H1   c C2   c Harmonic      Harmonic k2      31.000398    eV*Ang^-2 0.000 1 Bond
                            Harmonic r0      1.0814180    Ang       
                            Harmonic k3      0.0000000    eV*Ang^-3 
                            Harmonic k4      0.0000000    eV*Ang^-4 
                                                                    single   cyc
--------------------------------------------------------------------------------
H1   c H1   c Harmonic      Harmonic k2      41.137741    eV*Ang^-2 0.000 1 Bond
                            Harmonic r0     0.70800000    Ang       
                            Harmonic k3      0.0000000    eV*Ang^-3 
                            Harmonic k4      0.0000000    eV*Ang^-4 
                                                                    single   cyc
--------------------------------------------------------------------------------
C2   c C2   c Harmonic      Harmonic k2      40.125547    eV*Ang^-2 0.000 1 Bond
                            Harmonic r0      1.3792564    Ang       
                            Harmonic k3      0.0000000    eV*Ang^-3 
                            Harmonic k4      0.0000000    eV*Ang^-4 
                                                                    resonant cyc
--------------------------------------------------------------------------------

  Intramolecular Three-body potentials :

--------------------------------------------------------------------------------
  Atoms       Potential      Parameter       Value         Units   Cutoffs(Ang)
  1 / 2 / 3                                                          Min /  Max 
--------------------------------------------------------------------------------
C1    core    UFF3          Three-body cnst  9.2888988    eV        0.000 1 Bond
C1    core                  Three-body angl  109.47120    degrees   0.000 1 Bond
C1    core                                                          0.000
--------------------------------------------------------------------------------
C1    core    UFF3          Three-body cnst  9.5498631    eV        0.000 1 Bond
C1    core                  Three-body angl  109.47120    degrees   0.000 1 Bond
C2    core                                                          0.000
--------------------------------------------------------------------------------
C1    core    UFF3          Three-body cnst  5.0873164    eV        0.000 1 Bond
H1    core                  Three-body angl  109.47120    degrees   0.000 1 Bond
C1    core                                                          0.000
--------------------------------------------------------------------------------
C1    core    UFF3          Three-body cnst  9.8239338    eV        0.000 1 Bond
C2    core                  Three-body angl  109.47120    degrees   0.000 1 Bond
C2    core                                                          0.000
--------------------------------------------------------------------------------
C1    core    UFF3          Three-body cnst  5.2806517    eV        0.000 1 Bond
H1    core                  Three-body angl  109.47120    degrees   0.000 1 Bond
C2    core                                                          0.000
--------------------------------------------------------------------------------
C1    core    UFF3          Three-body cnst  3.2738641    eV        0.000 1 Bond
H1    core                  Three-body angl  109.47120    degrees   0.000 1 Bond
H1    core                                                          0.000
--------------------------------------------------------------------------------
C2    core    Linear 3-body Three-body cnst 0.85760083    eV        0.000 1 Bond
C1    core                  Three-body sign -1.0000000    None      0.000 1 Bond
C1    core                                                          0.000
--------------------------------------------------------------------------------
C2    core    Linear 3-body Three-body cnst 0.88220013    eV        0.000 1 Bond
C1    core                  Three-body sign -1.0000000    None      0.000 1 Bond
C2    core                                                          0.000
--------------------------------------------------------------------------------
C2    core    Linear 3-body Three-body cnst 0.47964682    eV        0.000 1 Bond
H1    core                  Three-body sign -1.0000000    None      0.000 1 Bond
C1    core                                                          0.000
--------------------------------------------------------------------------------
C2    core    Linear 3-body Three-body cnst 0.90796487    eV        0.000 1 Bond
C2    core                  Three-body sign -1.0000000    None      0.000 1 Bond
C2    core                                                          0.000
--------------------------------------------------------------------------------
C2    core    Linear 3-body Three-body cnst 0.49752076    eV        0.000 1 Bond
H1    core                  Three-body sign -1.0000000    None      0.000 1 Bond
C2    core                                                          0.000
--------------------------------------------------------------------------------
C2    core    Linear 3-body Three-body cnst 0.30856382    eV        0.000 1 Bond
H1    core                  Three-body sign -1.0000000    None      0.000 1 Bond
H1    core                                                          0.000
--------------------------------------------------------------------------------
H1    core    Linear 3-body Three-body cnst  9.6383034    eV        0.000 1 Bond
C1    core                  Three-body sign  1.0000000    None      0.000 1 Bond
C1    core                                                          0.000
--------------------------------------------------------------------------------
H1    core    Linear 3-body Three-body cnst  10.012363    eV        0.000 1 Bond
C1    core                  Three-body sign  1.0000000    None      0.000 1 Bond
C2    core                                                          0.000
--------------------------------------------------------------------------------
H1    core    Linear 3-body Three-body cnst  6.5312448    eV        0.000 1 Bond
H1    core                  Three-body sign  1.0000000    None      0.000 1 Bond
C1    core                                                          0.000
--------------------------------------------------------------------------------
H1    core    Linear 3-body Three-body cnst  10.406033    eV        0.000 1 Bond
C2    core                  Three-body sign  1.0000000    None      0.000 1 Bond
C2    core                                                          0.000
--------------------------------------------------------------------------------
H1    core    Linear 3-body Three-body cnst  6.8424663    eV        0.000 1 Bond
H1    core                  Three-body sign  1.0000000    None      0.000 1 Bond
C2    core                                                          0.000
--------------------------------------------------------------------------------
H1    core    Linear 3-body Three-body cnst  5.1422176    eV        0.000 1 Bond
H1    core                  Three-body sign  1.0000000    None      0.000 1 Bond
H1    core                                                          0.000
--------------------------------------------------------------------------------
C2    core    Linear 3-body Three-body cnst  1.0725229    eV        0.000 1 Bond
C2    core                  Three-body sign -1.0000000    None      0.000 1 Bond
C2    core                                                          0.000
--------------------------------------------------------------------------------
C2    core    Linear 3-body Three-body cnst 0.95533914    eV        0.000 1 Bond
C1    core                  Three-body sign -1.0000000    None      0.000 1 Bond
C2    core                                                          0.000
--------------------------------------------------------------------------------
C2    core    Linear 3-body Three-body cnst 0.98469331    eV        0.000 1 Bond
C2    core                  Three-body sign -1.0000000    None      0.000 1 Bond
C2    core                                                          0.000
--------------------------------------------------------------------------------
C2    core    Linear 3-body Three-body cnst 0.55206792    eV        0.000 1 Bond
H1    core                  Three-body sign -1.0000000    None      0.000 1 Bond
C2    core                                                          0.000
--------------------------------------------------------------------------------

  Intramolecular Four-body potentials :

--------------------------------------------------------------------------------
  Atoms       Potential      Parameter       Value         Units   Cutoffs(Ang)
  1 - 4                                                             Min /  Max 
--------------------------------------------------------------------------------
X     core    UFF4          Torsional const 0.91889231E-01eV         Bonded
C1    core Phase = +  3                                              single   
C1    core                                                              
X     core
--------------------------------------------------------------------------------
C1    core    UFF4          Torsional const 0.86728864E-01eV         Bonded
C2    core Phase = +  3                                              single   
C1    core                                                              
X     core
--------------------------------------------------------------------------------
C2    core    UFF4          Torsional const 0.43364432E-01eV         Bonded
C2    core Phase = +  6                                              single   
C1    core                                                              
X     core
--------------------------------------------------------------------------------
H1    core    UFF4          Torsional const 0.86728864E-01eV         Bonded
C2    core Phase = +  3                                              single   
C1    core                                                              
X     core
--------------------------------------------------------------------------------
X     core    UFF4          Torsional const 0.43364432    eV         Bonded
C2    core Phase = +  2                                              single   
C2    core                                                              
X     core
--------------------------------------------------------------------------------
X     core    UFF4          Torsional const  1.1686039    eV         Bonded
C2    core Phase = +  2                                              resonant 
C2    core                                                              
X     core
--------------------------------------------------------------------------------
C2    core    UFFoop        UFF oop K       0.26018659    eV         Bonded
X     core                  UFF oop C0       1.0000000    None                
X     core                  UFF oop C1      -1.0000000    None          
X     core                  UFF oop C2       0.0000000    None      
--------------------------------------------------------------------------------

********************************************************************************
*  Output for configuration   1                                                *
********************************************************************************


  Components of energy : 

--------------------------------------------------------------------------------
  Interatomic potentials     =           0.58196120 eV    
  Three-body potentials      =           0.01471430 eV    
  Four-body potentials       =           0.00675593 eV    
  Improper torsions          =           0.00000000 eV    
  Out of plane potentials    =           0.00002082 eV    
  Monopole - monopole (real) =          -0.64567254 eV    
--------------------------------------------------------------------------------
  Total lattice energy       =          -0.04222029 eV    
--------------------------------------------------------------------------------
  Total lattice energy       =              -4.0736 kJ/mol
--------------------------------------------------------------------------------


  Number of variables =       51

  Maximum number of calculations  =          1000
  Maximum Hessian update interval =            10
  Maximum step size               =   1.000000000
  Maximum parameter tolerance     =   0.000010000
  Maximum function  tolerance     =   0.000010000
  Maximum gradient  tolerance     =   0.001000000
  Maximum gradient  component     =   0.010000000

  Symmetry not applied to optimisation

  Cell parameters to be optimised using strains

  Newton-Raphson optimiser to be used

  BFGS hessian update to be used

  Lower half triangular hessian to be used

  Dumpfile to be written after every cycle

  Start of cluster optimisation :

  Cycle:      0 Energy:        -0.042220  Gnorm:      0.044129  CPU:    0.010
  ** Hessian calculated **
  Cycle:      1 Energy:        -0.085938  Gnorm:      0.007140  CPU:    0.012
  Cycle:      2 Energy:        -0.086337  Gnorm:      0.006664  CPU:    0.013
  ** Hessian calculated **
  Cycle:      3 Energy:        -0.090430  Gnorm:      0.000593  CPU:    0.015
  Cycle:      4 Energy:        -0.090475  Gnorm:      0.000125  CPU:    0.017

  MSI Archive (version 3) written as example49_0D.arc



  **** Optimisation achieved ****


  Final energy =      -0.09047573 eV
  Final Gnorm  =       0.00002915

  Components of energy : 

--------------------------------------------------------------------------------
  Interatomic potentials     =           0.54018721 eV    
  Three-body potentials      =           0.01315953 eV    
  Four-body potentials       =           0.00000250 eV    
  Improper torsions          =           0.00000000 eV    
  Out of plane potentials    =           0.00000000 eV    
  Monopole - monopole (real) =          -0.64382497 eV    
--------------------------------------------------------------------------------
  Total lattice energy       =          -0.09047573 eV    
--------------------------------------------------------------------------------
  Total lattice energy       =              -8.7295 kJ/mol
--------------------------------------------------------------------------------

  Final cartesian coordinates of atoms :

--------------------------------------------------------------------------------
   No.  Atomic        x           y          z          Radius
        Label       (Angs)      (Angs)     (Angs)       (Angs) 
--------------------------------------------------------------------------------
     1  H1    c     0.114254    0.117494   -0.002623    0.000000
     2  C1    c     1.218225    0.003418   -0.022274    0.000000
     3  H1    c     1.675696    1.013943   -0.070810    0.000000
     4  H1    c     1.510996   -0.559488   -0.933068    0.000000
     5  C2    c     1.666194   -0.745936    1.195319    0.000000
     6  C2    c     1.189920   -2.044510    1.425460    0.000000
     7  C2    c     1.598058   -2.761237    2.559404    0.000000
     8  C2    c     2.489324   -2.170192    3.466795    0.000000
     9  C2    c     2.966585   -0.875649    3.241096    0.000000
    10  C2    c     2.557122   -0.164483    2.109216    0.000000
    11  H1    c     0.501854   -2.497143    0.722394    0.000000
    12  H1    c     3.654592   -0.422987    3.944222    0.000000
    13  H1    c     2.934359    0.837110    1.946638    0.000000
    14  H1    c     2.814474   -2.709636    4.347239    0.000000
    15  C1    c     1.077765   -4.147615    2.787487    0.000000
    16  H1    c     1.367307   -4.797559    1.935469    0.000000
    17  H1    c    -0.029150   -4.120353    2.866242    0.000000
    18  H1    c     1.486323   -4.588329    3.721112    0.000000
--------------------------------------------------------------------------------


  Final Cartesian derivatives :

--------------------------------------------------------------------------------
   No.  Atomic          x             y             z           Radius
        Label       (eV/Angs)     (eV/Angs)    (eV/Angs)      (eV/Angs)
--------------------------------------------------------------------------------
      1 H1    c      -0.000004     -0.000013      0.000092      0.000000
      2 C1    c       0.000022     -0.000242     -0.000064      0.000000
      3 H1    c       0.000038      0.000267     -0.000186      0.000000
      4 H1    c       0.000015      0.000087      0.000081      0.000000
      5 C2    c      -0.000280      0.000054     -0.000326      0.000000
      6 C2    c       0.000000      0.000000      0.000000      0.000000
      7 C2    c       0.000199     -0.000043      0.000175      0.000000
      8 C2    c       0.000020     -0.000098      0.000197      0.000000
      9 C2    c       0.000088     -0.000041      0.000169      0.000000
     10 C2    c       0.000086     -0.000047      0.000031      0.000000
     11 H1    c      -0.000122     -0.000038     -0.000122      0.000000
     12 H1    c       0.000073      0.000058      0.000076      0.000000
     13 H1    c       0.000012      0.000252     -0.000055      0.000000
     14 H1    c       0.000041     -0.000126      0.000134      0.000000
     15 C1    c       0.000348      0.000333      0.000164      0.000000
     16 H1    c       0.000131     -0.000398     -0.000537      0.000000
     17 H1    c      -0.000798     -0.000023      0.000072      0.000000
     18 H1    c       0.000183     -0.000073      0.000328      0.000000
--------------------------------------------------------------------------------
  Maximum abs         0.000798      0.000398      0.000537      0.000000
--------------------------------------------------------------------------------


  Born effective charge tensors : 

-------------------------------------------------------------------------------
  Atom             x           y             z
-------------------------------------------------------------------------------
    1 H1    x       0.0830      0.0000      0.0000
            y       0.0000      0.0830      0.0000
            z       0.0000      0.0000      0.0830
-------------------------------------------------------------------------------
    2 C1    x      -0.1790      0.0000      0.0000
            y       0.0000     -0.1790      0.0000
            z       0.0000      0.0000     -0.1790
-------------------------------------------------------------------------------
    3 H1    x       0.0800      0.0000      0.0000
            y       0.0000      0.0800      0.0000
            z       0.0000      0.0000      0.0800
-------------------------------------------------------------------------------
    4 H1    x       0.0850      0.0000      0.0000
            y       0.0000      0.0850      0.0000
            z       0.0000      0.0000      0.0850
-------------------------------------------------------------------------------
    5 C2    x      -0.0670      0.0000      0.0000
            y       0.0000     -0.0670      0.0000
            z       0.0000      0.0000     -0.0670
-------------------------------------------------------------------------------
    6 C2    x      -0.1330      0.0000      0.0000
            y       0.0000     -0.1330      0.0000
            z       0.0000      0.0000     -0.1330
-------------------------------------------------------------------------------
    7 C2    x      -0.0660      0.0000      0.0000
            y       0.0000     -0.0660      0.0000
            z       0.0000      0.0000     -0.0660
-------------------------------------------------------------------------------
    8 C2    x      -0.1340      0.0000      0.0000
            y       0.0000     -0.1340      0.0000
            z       0.0000      0.0000     -0.1340
-------------------------------------------------------------------------------
    9 C2    x      -0.1240      0.0000      0.0000
            y       0.0000     -0.1240      0.0000
            z       0.0000      0.0000     -0.1240
-------------------------------------------------------------------------------
   10 C2    x      -0.1350      0.0000      0.0000
            y       0.0000     -0.1350      0.0000
            z       0.0000      0.0000     -0.1350
-------------------------------------------------------------------------------
   11 H1    x       0.1310      0.0000      0.0000
            y       0.0000      0.1310      0.0000
            z       0.0000      0.0000      0.1310
-------------------------------------------------------------------------------
   12 H1    x       0.1300      0.0000      0.0000
            y       0.0000      0.1300      0.0000
            z       0.0000      0.0000      0.1300
-------------------------------------------------------------------------------
   13 H1    x       0.1300      0.0000      0.0000
            y       0.0000      0.1300      0.0000
            z       0.0000      0.0000      0.1300
-------------------------------------------------------------------------------
   14 H1    x       0.1300      0.0000      0.0000
            y       0.0000      0.1300      0.0000
            z       0.0000      0.0000      0.1300
-------------------------------------------------------------------------------
   15 C1    x      -0.1800      0.0000      0.0000
            y       0.0000     -0.1800      0.0000
            z       0.0000      0.0000     -0.1800
-------------------------------------------------------------------------------
   16 H1    x       0.0840      0.0000      0.0000
            y       0.0000      0.0840      0.0000
            z       0.0000      0.0000      0.0840
-------------------------------------------------------------------------------
   17 H1    x       0.0840      0.0000      0.0000
            y       0.0000      0.0840      0.0000
            z       0.0000      0.0000      0.0840
-------------------------------------------------------------------------------
   18 H1    x       0.0800      0.0000      0.0000
            y       0.0000      0.0800      0.0000
            z       0.0000      0.0000      0.0800
-------------------------------------------------------------------------------




  Moment of inertia tensor (10^-46 x kgm^2): 

-------------------------------------------------------------------------------
                x           y           z           Principal axis system
-------------------------------------------------------------------------------
       x         60.62       -7.08       -8.61           23.729146
       y         -7.08       34.27       15.22           47.163569
       z         -8.61       15.22       45.79           69.794175
-------------------------------------------------------------------------------
  Centre of mass (Ang) =     1.822349    -1.628440     2.071758
-------------------------------------------------------------------------------


  Vibrational Frequency Calculation : 

--------------------------------------------------------------------------------

  Frequencies (cm-1) [NB: Negative implies an imaginary mode]:

   -0.00   -0.00    0.00    1.80    1.85    2.57  198.24  223.91  258.07
  268.01  386.71  452.01  533.13  599.51  630.67  640.67  668.46  808.23
  838.49  987.73  989.50 1006.23 1102.25 1113.83 1154.27 1158.17 1162.10
 1163.73 1230.66 1286.18 1430.96 1439.53 1460.28 1476.36 1476.66 1479.50
 1627.09 1651.87 1668.40 1693.84 1794.81 1855.58 1933.60 1989.62 2832.45
 2832.52 2942.08 2942.17 2942.60 2942.72 3030.89 3031.78 3032.60 3035.56


--------------------------------------------------------------------------------
  Vibrational properties (for cluster):  Temperature  =       0.000 K
--------------------------------------------------------------------------------
  Zero point energy            =        4.426527 eV
--------------------------------------------------------------------------------


  Phonon density of states written as m-xylene.dens                 



  Time to end of optimisation =       0.0211 seconds



  Electrostatic potential at atomic positions :

-------------------------------------------------------------------------------
 Site  Atomic      Potential                Derivatives (V/Angs)
 No.   Label          (V)                 x           y           z
-------------------------------------------------------------------------------
     1 H1    c     -1.734813          -1.765441    0.378843   -0.444766
     2 C1    c      2.142924          -0.552604    0.839073   -1.477056
     3 H1    c     -1.643917           0.564400    1.750172   -0.434865
     4 H1    c     -1.750813           0.210451   -0.578807   -1.761096
     5 C2    c     -1.699760          -0.253064    0.421873   -0.691812
     6 C2    c      0.053317          -1.660947   -1.097992   -1.695656
     7 C2    c     -1.706360          -0.289564   -0.779476    0.131898
     8 C2    c      0.113566           0.852231   -1.327753    2.244508
     9 C2    c      0.019603           1.860530    1.218197    1.905102
    10 C2    c      0.116719           0.986196    2.534603   -0.365595
    11 H1    c     -2.545264          -1.433877   -0.944675   -1.466590
    12 H1    c     -2.314654           1.329959    0.873387    1.360040
    13 H1    c     -2.452624           0.834143    2.067596   -0.253658
    14 H1    c     -2.443213           0.724771   -1.034079    1.839788
    15 C1    c      2.153938          -0.648549   -1.641755    0.221095
    16 H1    c     -1.748120           0.181570   -1.430907   -1.191041
    17 H1    c     -1.748439          -1.806145   -0.467115    0.133947
    18 H1    c     -1.648467           0.470671   -1.077451    1.489899
-------------------------------------------------------------------------------

  Total time to end of atomic site potentials =       0.0212 s


  Peak dynamic memory used =       1.92 MB 


  Timing analysis for GULP :

--------------------------------------------------------------------------------
  Task / Subroutine                                          Time (Seconds)
--------------------------------------------------------------------------------
  Calculation of real space energy and derivatives                0.0013
  Calculation of three-body energy and derivatives                0.0013
  Calculation of four-body energy and derivatives                 0.0010
  Calculation of phonons                                          0.0018
--------------------------------------------------------------------------------
  Total CPU time                                                  0.0212
--------------------------------------------------------------------------------


  Dump file written as example49.res


  Job Finished at 11:50.42  8th July       2020                               

