********************************************************************************
*                       GENERAL UTILITY LATTICE PROGRAM                        *
*                                 Julian Gale                                  *
*                       Curtin Institute for Computation                       *
*                    School of Molecular and Life Sciences                     *
*                    Curtin University, Western Australia                      *
********************************************************************************
* Version = 6.0.0 * Last modified =   7th July 2020                            *
********************************************************************************
*  optimise     - perform optimisation run                                     *
*  conp         - constant pressure calculation                                *
*  property     - calculate properties for final geometry                      *
*  compare      - compare initial and final structures                         *
********************************************************************************

  Job Started  at 11:59.02  8th July       2020                               

  Number of CPUs =     1

  Host name      = M-A0034725                              


  Total number of configurations input =      1

********************************************************************************
*  Input for Configuration =   1                                               *
********************************************************************************

  Formula = Cu                                                          

  Number of irreducible atoms/shells =       1


  Total number atoms/shells =       1

  Dimensionality = 3               :  Bulk   


  Symmetry :

  Crystal family                   :  Cubic       
  Crystal class  (Groth - 1921)    :  Cubic Hexakisoctahedral              

  Space group (centrosymmetric)    :  F M 3 M         

  Patterson group                  :  F m -3 m 

  Cartesian lattice vectors (Angstroms) :

        0.000000    1.705000    1.705000
        1.705000    0.000000    1.705000
        1.705000    1.705000    0.000000

  Primitive cell parameters :            Full cell parameters :

  a =   2.4112    alpha =  60.0000       a =   3.4100    alpha =  90.0000
  b =   2.4112    beta  =  60.0000       b =   3.4100    beta  =  90.0000
  c =   2.4112    gamma =  60.0000       c =   3.4100    gamma =  90.0000

  Initial volumes (Angstroms**3):

  Primitive cell =           9.912955    Full cell =          39.651821

  Temperature of configuration =   0.00     K 

  Pressure of configuration =         0.000 GPa 

  Fractional coordinates of asymmetric unit :

--------------------------------------------------------------------------------
   No.  Atomic       x           y          z         Charge      Occupancy
        Label      (Frac)      (Frac)     (Frac)        (e)         (Frac)  
--------------------------------------------------------------------------------
      1 Cu    c    0.000000    0.000000    0.000000     0.00000    1.000000    
--------------------------------------------------------------------------------


  Constraints : 

--------------------------------------------------------------------------------
  Constraint no.      Unconstrained     Constrained    Coefficient    Offset
                         Variable         Variable
--------------------------------------------------------------------------------
           1              Strain 1        Strain 2       1.00000      0.0000
           2              Strain 1        Strain 3       1.00000      0.0000
--------------------------------------------------------------------------------


********************************************************************************
*  General input information                                                   *
********************************************************************************

  Species output for all configurations : 

--------------------------------------------------------------------------------
  Species    Type    Atomic    Atomic    Charge       Radii (Angs)     Library
                     Number     Mass       (e)     Cova   Ionic  VDW   Symbol
--------------------------------------------------------------------------------
    Cu       Core       29      63.55   0.000000   1.520  0.000  1.540          
--------------------------------------------------------------------------------


  Lattice summation method               =    Ewald          (3-D)
                                         =    Parry          (2-D)
                                         =    Saunders et al (1-D)
  Accuracy factor for lattice sums       =   12.000


  Analytic derivatives to be used

  Time limit = Infinity

  Maximum range for interatomic potentials =         8.000000 Angstroms

  Taper potentials to zero over   1.0000 Angstroms using M-D-F

  General interatomic potentials :

--------------------------------------------------------------------------------
Atom  Types   Potential      Parameter       Value         Units   Cutoffs(Ang)
  1     2                                                            Min /  Max 
--------------------------------------------------------------------------------
Cu   c Cu   c Many-body                                             0.000  4.000
--------------------------------------------------------------------------------
Cu   c Cu   c Baskes        Baskes Ec        3.5400000    eV        0.000  8.000
                            Baskes A        0.94000000    None      
                            Baskes alpha     5.1548300    None      
                            Baskes r0        2.5550000    Ang       
                            Baskes Z         12.000000    None      
                            Baskes rho0      1.0000000    None      
                            Baskes d        0.50000000E-01None      
--------------------------------------------------------------------------------

  Modified Embedded Atom Model Densities :

--------------------------------------------------------------------------------
  Atom(s)       Functional/Order        A          B          C         n      
--------------------------------------------------------------------------------
  Cu   c        Baskes       0       1.000      3.830      2.555         0
                             1       1.000      2.200      2.555         0
                             2       1.000      6.000      2.555         0
                             3       1.000      2.200      2.555         0
--------------------------------------------------------------------------------


  Embedded Atom Model alloy parameters :

--------------------------------------------------------------------------------
  Atom(s)                          Scale factor 
--------------------------------------------------------------------------------
  Cu    c                            1.000000
--------------------------------------------------------------------------------

  Embedded Atom Model functional = Baskes

--------------------------------------------------------------------------------
  Atom                     Ec          A            rho0
--------------------------------------------------------------------------------
  Cu    c               3.540000   0.940000        12.0000    
          MEAM type = exponential : 24 term
          MEAM order/coefficients =  4   1.0000   2.7200   3.0400   1.9500
--------------------------------------------------------------------------------


  Manybody second derivative cross term cutoffs to be scaled by = 0.50000000
  Modified Embedded Atom Model screening parameters 

--------------------------------------------------------------------------------
  Atom 1    Atom 2    Atom 3            C_min       C_max 
--------------------------------------------------------------------------------
  Cu    c   Cu    c   Cu    c          1.210000    2.800000
--------------------------------------------------------------------------------


********************************************************************************
*  Output for configuration   1                                                *
********************************************************************************


  Components of energy : 

--------------------------------------------------------------------------------
  Interatomic potentials     =          -4.24271743 eV    
  Many-body potentials       =           0.88958776 eV    
  Monopole - monopole (real) =           0.00000000 eV    
  Monopole - monopole (recip)=           0.00000000 eV    
  Monopole - monopole (total)=           0.00000000 eV    
--------------------------------------------------------------------------------
  Total lattice energy : 
    Primitive unit cell      =          -3.35312967 eV    
    Non-primitive unit cell  =         -13.41251869 eV    
--------------------------------------------------------------------------------
  Total lattice energy (in kJmol-1): 
    Primitive unit cell      =            -323.5258 kJ/(mole unit cells)
    Non-primitive unit cell  =           -1294.1030 kJ/(mole unit cells)
--------------------------------------------------------------------------------


  Number of variables =        1

  Maximum number of calculations  =          1000
  Maximum Hessian update interval =            10
  Maximum step size               =   1.000000000
  Maximum parameter tolerance     =   0.000010000
  Maximum function  tolerance     =   0.000010000
  Maximum gradient  tolerance     =   0.001000000
  Maximum gradient  component     =   0.010000000

  Symmetry constrained optimisation

  Symmetry used for second derivatives

  Cell parameters to be optimised using strains

  Newton-Raphson optimiser to be used

  BFGS hessian update to be used

  Lower half triangular hessian to be used

  Start of bulk optimisation :

  Cycle:      0 Energy:        -3.353130  Gnorm:      6.994511  CPU:    0.011
  Cycle:      1 Energy:        -3.503098  Gnorm:      2.849277  CPU:    0.019
  Cycle:      2 Energy:        -3.539835  Gnorm:      0.177086  CPU:    0.025
  Cycle:      3 Energy:        -3.540000  Gnorm:      0.000059  CPU:    0.030


  **** Optimisation achieved ****


  Final energy =      -3.54000000 eV
  Final Gnorm  =       0.00000000

  Components of energy : 

--------------------------------------------------------------------------------
  Interatomic potentials     =          -3.54000000 eV    
  Many-body potentials       =          -0.00000000 eV    
  Monopole - monopole (real) =           0.00000000 eV    
  Monopole - monopole (recip)=           0.00000000 eV    
  Monopole - monopole (total)=           0.00000000 eV    
--------------------------------------------------------------------------------
  Total lattice energy : 
    Primitive unit cell      =          -3.54000000 eV    
    Non-primitive unit cell  =         -14.16000000 eV    
--------------------------------------------------------------------------------
  Total lattice energy (in kJmol-1): 
    Primitive unit cell      =            -341.5559 kJ/(mole unit cells)
    Non-primitive unit cell  =           -1366.2235 kJ/(mole unit cells)
--------------------------------------------------------------------------------

  Final asymmetric unit coordinates :

--------------------------------------------------------------------------------
   No.  Atomic        x           y           z         Radius
        Label       (Frac)      (Frac)      (Frac)       (Angs) 
--------------------------------------------------------------------------------
     1  Cu    c     0.000000    0.000000    0.000000    0.000000
--------------------------------------------------------------------------------

  Final Cartesian lattice vectors (Angstroms) :

        0.000000    1.806658    1.806658
        1.806658    0.000000    1.806658
        1.806658    1.806658    0.000000


  Final cell parameters and derivatives :

--------------------------------------------------------------------------------
       a            2.555000 Angstrom     dE/de1(xx)     0.000000 eV/strain
       b            2.555000 Angstrom     dE/de2(yy)     0.000000 eV/strain
       c            2.555000 Angstrom     dE/de3(zz)     0.000000 eV/strain
       alpha       60.000000 Degrees      dE/de4(yz)     0.000000 eV/strain
       beta        60.000000 Degrees      dE/de5(xz)     0.000000 eV/strain
       gamma       60.000000 Degrees      dE/de6(xy)     0.000000 eV/strain
--------------------------------------------------------------------------------

  Primitive cell volume =            11.793907 Angs**3

  Density of cell =      8.947750 g/cm**3

  Non-primitive lattice parameters :

  a    =     3.613316  b   =     3.613316  c    =     3.613316
  alpha=    90.000000  beta=    90.000000  gamma=    90.000000

  Non-primitive cell volume =            47.175630 Angs**3


  Final internal derivatives :

--------------------------------------------------------------------------------
   No.  Atomic          a             b             c           Radius
        Label          (eV)          (eV)          (eV)        (eV/Angs)
--------------------------------------------------------------------------------
      1 Cu    c       0.000000      0.000000      0.000000      0.000000
--------------------------------------------------------------------------------
  Maximum abs         0.000000      0.000000      0.000000      0.000000
--------------------------------------------------------------------------------

  Comparison of initial and final structures : 

--------------------------------------------------------------------------------
  Parameter   Initial value   Final value   Difference    Units      Percent
--------------------------------------------------------------------------------
    Volume        39.651821     47.175630     7.523809    Angs**3     18.97
    a              3.410000      3.613316     0.203316    Angstroms    5.96
    b              3.410000      3.613316     0.203316    Angstroms    5.96
    c              3.410000      3.613316     0.203316    Angstroms    5.96
    alpha         90.000000     90.000000     0.000000    Degrees      0.00
    beta          90.000000     90.000000     0.000000    Degrees      0.00
    gamma         90.000000     90.000000     0.000000    Degrees      0.00
      1 x          0.000000      0.000000     0.000000    Fractional   0.00
      1 y          0.000000      0.000000     0.000000    Fractional   0.00
      1 z          0.000000      0.000000     0.000000    Fractional   0.00
--------------------------------------------------------------------------------



  Elastic Constant Matrix: (Units=GPa)

-------------------------------------------------------------------------------
  Indices      1         2         3         4         5         6    
-------------------------------------------------------------------------------
       1    176.1399  124.9094  124.9094   -0.0000    0.0000   -0.0000
       2    124.9094  176.1399  124.9094   -0.0000   -0.0000   -0.0000
       3    124.9094  124.9094  176.1399   -0.0000   -0.0000   -0.0000
       4     -0.0000   -0.0000   -0.0000   81.7691   -0.0000   -0.0000
       5      0.0000   -0.0000   -0.0000   -0.0000   81.7691    0.0000
       6     -0.0000   -0.0000   -0.0000   -0.0000    0.0000   81.7691
-------------------------------------------------------------------------------


  Elastic Compliance Matrix: (Units=1/GPa)

-------------------------------------------------------------------------------
  Indices      1         2         3         4         5         6    
-------------------------------------------------------------------------------
       1    0.013796 -0.005724 -0.005724  0.000000 -0.000000 -0.000000
       2   -0.005724  0.013796 -0.005724  0.000000  0.000000 -0.000000
       3   -0.005724 -0.005724  0.013796  0.000000 -0.000000  0.000000
       4    0.000000  0.000000  0.000000  0.012230  0.000000  0.000000
       5   -0.000000  0.000000 -0.000000  0.000000  0.012230 -0.000000
       6   -0.000000 -0.000000  0.000000  0.000000 -0.000000  0.012230
-------------------------------------------------------------------------------

  Mechanical properties :

-------------------------------------------------------------------------------
  Convention :                    Reuss         Voigt         Hill
-------------------------------------------------------------------------------
  Bulk  Modulus (GPa)     =     141.98622     141.98622     141.98622
  Shear Modulus (GPa)     =      43.56648      59.30757      51.43703
-------------------------------------------------------------------------------
  Velocity S-wave (km/s)  =       2.20658       2.57453       2.39762
  Velocity P-wave (km/s)  =       4.72867       4.97051       4.85110
-------------------------------------------------------------------------------
  Compressibility (1/GPa) =    0.00704294
-------------------------------------------------------------------------------
  Stress axis :                     x             y             z
-------------------------------------------------------------------------------
  Youngs Moduli (GPa)     =      72.48675      72.48675      72.48675
-------------------------------------------------------------------------------
  Poissons Ratio (x)      =                     0.41491       0.41491
  Poissons Ratio (y)      =       0.41491                     0.41491
  Poissons Ratio (z)      =       0.41491       0.41491
-------------------------------------------------------------------------------


  Piezoelectric Strain Matrix: (Units=C/m**2)

-------------------------------------------------------------------------------
  Indices      1         2         3         4         5         6    
-------------------------------------------------------------------------------
       x     0.00000   0.00000   0.00000   0.00000   0.00000   0.00000
       y     0.00000   0.00000   0.00000   0.00000   0.00000   0.00000
       z     0.00000   0.00000   0.00000   0.00000   0.00000   0.00000
-------------------------------------------------------------------------------


  Piezoelectric Stress Matrix: (Units=10**-11 C/N)

-------------------------------------------------------------------------------
  Indices      1         2         3         4         5         6    
-------------------------------------------------------------------------------
       x     0.00000   0.00000   0.00000   0.00000   0.00000   0.00000
       y     0.00000   0.00000   0.00000   0.00000   0.00000   0.00000
       z     0.00000   0.00000   0.00000   0.00000   0.00000   0.00000
-------------------------------------------------------------------------------


  Static dielectric constant tensor : 

-------------------------------------------------------------------------------
              x         y         z
-------------------------------------------------------------------------------
       x     1.00000   0.00000   0.00000
       y     0.00000   1.00000   0.00000
       z     0.00000   0.00000   1.00000
--------------------------------------------------------------------------------

  Static refractive indices : 

-------------------------------------------------------------------------------
    1 =    1.00000      2 =    1.00000      3 =    1.00000
-------------------------------------------------------------------------------


  Time to end of optimisation =       0.0907 seconds


  Peak dynamic memory used =       1.86 MB 


  Timing analysis for GULP :

--------------------------------------------------------------------------------
  Task / Subroutine                                          Time (Seconds)
--------------------------------------------------------------------------------
  Calculation of real space energy and derivatives                0.0340
  Calculation of real space energy using symmetry                 0.0235
  Calculation of many-body energy and derivatives                 0.0247
  Symmetry generation of equivalent positions                     0.0012
--------------------------------------------------------------------------------
  Total CPU time                                                  0.0908
--------------------------------------------------------------------------------


  Job Finished at 11:59.02  8th July       2020                               

