********************************************************************************
*                       GENERAL UTILITY LATTICE PROGRAM                        *
*                                 Julian Gale                                  *
*                       Curtin Institute for Computation                       *
*                    School of Molecular and Life Sciences                     *
*                    Curtin University, Western Australia                      *
********************************************************************************
* Version = 6.0.0 * Last modified =   7th July 2020                            *
********************************************************************************
*  optimise     - perform optimisation run                                     *
*  conp         - constant pressure calculation                                *
*  strain       - use strains with respect to reference cell                   *
*  property     - calculate properties for final geometry                      *
*  nosymmetry   - turn off symmetry after initial structure generation         *
********************************************************************************
* alumina test file                                                            *
********************************************************************************


  Job Started  at 12:00.57  8th July       2020                               

  Number of CPUs =     1

  Host name      = M-A0034725                              


  Total number of configurations input =      1

********************************************************************************
*  Input for Configuration =   1                                               *
********************************************************************************

  Formula = Al4O6                                                       

  Number of irreducible atoms/shells =      20


  Total number atoms/shells =      20

  Dimensionality = 3               :  Bulk   



  Reference Cartesian lattice vectors (Angstroms) :

        2.380100    1.374151    4.331100
       -2.380100    1.374151    4.331100
        0.000000   -2.748303    4.331100

  Initial strains :

        0.000000    0.000000    0.000000    0.000000    0.000000    0.000000

  Cartesian lattice vectors (Angstroms) :

        2.380100    1.374151    4.331100
       -2.380100    1.374151    4.331100
        0.000000   -2.748303    4.331100

  Cell parameters (Angstroms/Degrees):

  a =       5.1295    alpha =  55.2915
  b =       5.1295    beta  =  55.2915
  c =       5.1295    gamma =  55.2915

  Initial cell volume =          84.992234 Angs**3

  Temperature of configuration =   0.00     K 

  Pressure of configuration =         0.000 GPa 

  Fractional coordinates of asymmetric unit :

--------------------------------------------------------------------------------
   No.  Atomic       x           y          z         Charge      Occupancy
        Label      (Frac)      (Frac)     (Frac)        (e)         (Frac)  
--------------------------------------------------------------------------------
      1 Al    c    0.352160 *  0.352160 *  0.352160 *   0.04300    1.000000    
      2 Al    c    0.147840 *  0.147840 *  0.147840 *   0.04300    1.000000    
      3 Al    c    0.647840 *  0.647840 *  0.647840 *   0.04300    1.000000    
      4 Al    c    0.852160 *  0.852160 *  0.852160 *   0.04300    1.000000    
      5 O     c    0.556240 *  0.943760 *  0.250000 *   0.51300    1.000000    
      6 O     c    0.250000 *  0.556240 *  0.943760 *   0.51300    1.000000    
      7 O     c    0.943760 *  0.250000 *  0.556240 *   0.51300    1.000000    
      8 O     c    0.443760 *  0.056240 *  0.750000 *   0.51300    1.000000    
      9 O     c    0.750000 *  0.443760 *  0.056240 *   0.51300    1.000000    
     10 O     c    0.056240    0.750000    0.443760     0.51300    1.000000    
     11 Al    s    0.352160 *  0.352160 *  0.352160 *   2.95700    1.000000    
     12 Al    s    0.147840 *  0.147840 *  0.147840 *   2.95700    1.000000    
     13 Al    s    0.647840 *  0.647840 *  0.647840 *   2.95700    1.000000    
     14 Al    s    0.852160 *  0.852160 *  0.852160 *   2.95700    1.000000    
     15 O     s    0.556240 *  0.943760 *  0.250000 *  -2.51300    1.000000    
     16 O     s    0.250000 *  0.556240 *  0.943760 *  -2.51300    1.000000    
     17 O     s    0.943760 *  0.250000 *  0.556240 *  -2.51300    1.000000    
     18 O     s    0.443760 *  0.056240 *  0.750000 *  -2.51300    1.000000    
     19 O     s    0.750000 *  0.443760 *  0.056240 *  -2.51300    1.000000    
     20 O     s    0.056240 *  0.750000 *  0.443760 *  -2.51300    1.000000    
--------------------------------------------------------------------------------



********************************************************************************
*  General input information                                                   *
********************************************************************************

  Species output for all configurations : 

--------------------------------------------------------------------------------
  Species    Type    Atomic    Atomic    Charge       Radii (Angs)     Library
                     Number     Mass       (e)     Cova   Ionic  VDW   Symbol
--------------------------------------------------------------------------------
    Al       Core       13      26.98   0.043000   1.350  0.000  2.050          
    Al       Shell      13       0.00   2.957000   1.350  0.000  2.050          
    O        Core        8      16.00   0.513000   0.730  0.000  1.360          
    O        Shell       8       0.00  -2.513000   0.730  0.000  1.360          
--------------------------------------------------------------------------------


  Lattice summation method               =    Ewald          (3-D)
                                         =    Parry          (2-D)
                                         =    Saunders et al (1-D)
  Accuracy factor for lattice sums       =   12.000


  Analytic derivatives to be used

  Time limit = Infinity

  Maximum range for interatomic potentials =    100000.000000 Angstroms

  General interatomic potentials :

--------------------------------------------------------------------------------
Atom  Types   Potential      Parameter       Value         Units   Cutoffs(Ang)
  1     2                                                            Min /  Max 
--------------------------------------------------------------------------------
O    s Al   s Buckingham    Buckingham A     2409.5050    eV        0.000 10.000
                            Buckingham rho  0.26490000    Ang       
                            Buckingham C     0.0000000    eV*Ang^6  
--------------------------------------------------------------------------------
O    s O    s Buckingham    Buckingham A     25.410000    eV        0.000 12.000
                            Buckingham rho  0.69370000    Ang       
                            Buckingham C     32.320000    eV*Ang^6  
--------------------------------------------------------------------------------
Al   c Al   s Spring (c-s)  Spring k 2       403.98000    eV*Ang^-2 0.000  0.800
                            Spring k 4       0.0000000    eV*Ang^-4 
--------------------------------------------------------------------------------
O    c O    s Spring (c-s)  Spring k 2       20.530000    eV*Ang^-2 0.000  0.800
                            Spring k 4       0.0000000    eV*Ang^-4 
--------------------------------------------------------------------------------

********************************************************************************
*  Output for configuration   1                                                *
********************************************************************************


  Components of energy : 

--------------------------------------------------------------------------------
  Interatomic potentials     =          63.08516927 eV    
  Monopole - monopole (real) =        -126.96762275 eV    
  Monopole - monopole (recip)=        -250.81566546 eV    
  Monopole - monopole (total)=        -377.78328821 eV    
--------------------------------------------------------------------------------
  Total lattice energy       =        -314.69811894 eV    
--------------------------------------------------------------------------------
  Total lattice energy       =          -30363.5579 kJ/(mole unit cells)
--------------------------------------------------------------------------------


  Number of variables =       63

  Maximum number of calculations  =          1000
  Maximum Hessian update interval =            10
  Maximum step size               =   1.000000000
  Maximum parameter tolerance     =   0.000010000
  Maximum function  tolerance     =   0.000010000
  Maximum gradient  tolerance     =   0.001000000
  Maximum gradient  component     =   0.010000000

  Cell parameters to be optimised using strains

  Newton-Raphson optimiser to be used

  BFGS hessian update to be used

  Lower half triangular hessian to be used

  Dumpfile to be written after every cycle

  Start of bulk optimisation :

  Cycle:      0 Energy:      -314.698119  Gnorm:      0.555924  CPU:    0.019
  ** Hessian calculated **
  Cycle:      1 Energy:      -315.172718  Gnorm:      0.010393  CPU:    0.043
  Cycle:      2 Energy:      -315.173272  Gnorm:      0.001981  CPU:    0.068


  **** Optimisation achieved ****


  Final energy =    -315.17328093 eV
  Final Gnorm  =       0.00012883

  Components of energy : 

--------------------------------------------------------------------------------
  Interatomic potentials     =          59.48983376 eV    
  Monopole - monopole (real) =         -65.58543790 eV    
  Monopole - monopole (recip)=        -309.07767679 eV    
  Monopole - monopole (total)=        -374.66311469 eV    
--------------------------------------------------------------------------------
  Total lattice energy       =        -315.17328093 eV    
--------------------------------------------------------------------------------
  Total lattice energy       =          -30409.4037 kJ/(mole unit cells)
--------------------------------------------------------------------------------

  Final fractional coordinates of atoms :

--------------------------------------------------------------------------------
   No.  Atomic        x           y          z          Radius
        Label       (Frac)      (Frac)     (Frac)       (Angs) 
--------------------------------------------------------------------------------
     1  Al    c     0.366700    0.356233    0.345765    0.000000
     2  Al    c     0.154235    0.143767    0.133300    0.000000
     3  Al    c     0.654235    0.643767    0.633300    0.000000
     4  Al    c     0.866700    0.856233    0.845765    0.000000
     5  O     c     0.556240    0.954227    0.239533    0.000000
     6  O     c     0.260467    0.545773    0.943760    0.000000
     7  O     c     0.964694    0.250000    0.535306    0.000000
     8  O     c     0.464694    0.045773    0.739533    0.000000
     9  O     c     0.760467    0.454227    0.035306    0.000000
    10  O     c     0.056240    0.750000    0.443760    0.000000
    11  Al    s     0.366701    0.356234    0.345767    0.000000
    12  Al    s     0.154233    0.143766    0.133299    0.000000
    13  Al    s     0.654233    0.643766    0.633299    0.000000
    14  Al    s     0.866701    0.856234    0.845767    0.000000
    15  O     s     0.557891    0.952576    0.239533    0.000000
    16  O     s     0.260467    0.547424    0.942109    0.000000
    17  O     s     0.963043    0.250000    0.536957    0.000000
    18  O     s     0.463043    0.047424    0.739533    0.000000
    19  O     s     0.760467    0.452576    0.036957    0.000000
    20  O     s     0.057891    0.750000    0.442109    0.000000
--------------------------------------------------------------------------------

  Final Cartesian lattice vectors (Angstroms) :

        2.410035    1.391435    4.337253
       -2.410035    1.391435    4.337253
        0.000000   -2.782869    4.337253

  Final strains :

        0.012577    0.012577    0.001421    0.000000   -0.000000    0.000000


  Final cell parameters and derivatives :

--------------------------------------------------------------------------------
       a            5.153264 Angstrom     dE/de1(xx)     0.002158 eV/strain
       b            5.153264 Angstrom     dE/de2(yy)     0.002158 eV/strain
       c            5.153264 Angstrom     dE/de3(zz)     0.004053 eV/strain
       alpha       55.766530 Degrees      dE/de4(yz)     0.000000 eV/strain
       beta        55.766530 Degrees      dE/de5(xz)    -0.000000 eV/strain
       gamma       55.766530 Degrees      dE/de6(xy)     0.000000 eV/strain
--------------------------------------------------------------------------------

  Primitive cell volume =            87.267439 Angs**3

  Density of cell =      3.880285 g/cm**3

  Non-primitive cell volume =            87.267439 Angs**3


  Final internal derivatives :

--------------------------------------------------------------------------------
   No.  Atomic          a             b             c           Radius
        Label          (eV)          (eV)          (eV)        (eV/Angs)
--------------------------------------------------------------------------------
      1 Al    c      -0.000088     -0.000088     -0.000088      0.000000
      2 Al    c       0.000088      0.000088      0.000088      0.000000
      3 Al    c       0.000088      0.000088      0.000088      0.000000
      4 Al    c      -0.000088     -0.000088     -0.000088      0.000000
      5 O     c       0.000494     -0.000494     -0.000000      0.000000
      6 O     c       0.000000      0.000494     -0.000494      0.000000
      7 O     c      -0.000494     -0.000000      0.000494      0.000000
      8 O     c      -0.000494      0.000494      0.000000      0.000000
      9 O     c      -0.000000     -0.000494      0.000494      0.000000
     10 O     c       0.000000      0.000000      0.000000      0.000000
     11 Al    s       0.001302      0.001302      0.001302      0.000000
     12 Al    s      -0.001302     -0.001302     -0.001302      0.000000
     13 Al    s      -0.001302     -0.001302     -0.001302      0.000000
     14 Al    s       0.001302      0.001302      0.001302      0.000000
     15 O     s      -0.001199      0.001199      0.000000      0.000000
     16 O     s      -0.000000     -0.001199      0.001199      0.000000
     17 O     s       0.001199     -0.000000     -0.001199      0.000000
     18 O     s       0.001199     -0.001199     -0.000000      0.000000
     19 O     s       0.000000      0.001199     -0.001199      0.000000
     20 O     s      -0.001199      0.000000      0.001199      0.000000
--------------------------------------------------------------------------------
  Maximum abs         0.001302      0.001302      0.001302      0.000000
--------------------------------------------------------------------------------


  Born effective charge tensors : 

-------------------------------------------------------------------------------
  Atom             x           y             z
-------------------------------------------------------------------------------
    1 Al    x       2.4473     -0.3703      0.0000
            y       0.3703      2.4473      0.0000
            z       0.0000      0.0000      2.7489
-------------------------------------------------------------------------------
    2 Al    x       2.4473      0.3703     -0.0000
            y      -0.3703      2.4473     -0.0000
            z      -0.0000     -0.0000      2.7489
-------------------------------------------------------------------------------
    3 Al    x       2.4473     -0.3703      0.0000
            y       0.3703      2.4473      0.0000
            z       0.0000      0.0000      2.7489
-------------------------------------------------------------------------------
    4 Al    x       2.4473      0.3703     -0.0000
            y      -0.3703      2.4473     -0.0000
            z      -0.0000     -0.0000      2.7489
-------------------------------------------------------------------------------
    5 O     x      -1.7494     -0.0000     -0.0000
            y      -0.0000     -1.5136      0.2580
            z      -0.0000      0.3341     -1.8326
-------------------------------------------------------------------------------
    6 O     x      -1.5725      0.1021     -0.2234
            y       0.1021     -1.6905     -0.1290
            z      -0.2894     -0.1671     -1.8326
-------------------------------------------------------------------------------
    7 O     x      -1.5725     -0.1021      0.2234
            y      -0.1021     -1.6905     -0.1290
            z       0.2894     -0.1671     -1.8326
-------------------------------------------------------------------------------
    8 O     x      -1.7494     -0.0000     -0.0000
            y      -0.0000     -1.5136      0.2580
            z      -0.0000      0.3341     -1.8326
-------------------------------------------------------------------------------
    9 O     x      -1.5725      0.1021     -0.2234
            y       0.1021     -1.6905     -0.1290
            z      -0.2894     -0.1671     -1.8326
-------------------------------------------------------------------------------
   10 O     x      -1.5725     -0.1021      0.2234
            y      -0.1021     -1.6905     -0.1290
            z       0.2894     -0.1671     -1.8326
-------------------------------------------------------------------------------




  Elastic Constant Matrix: (Units=GPa)

-------------------------------------------------------------------------------
  Indices      1         2         3         4         5         6    
-------------------------------------------------------------------------------
       1    607.4825  322.9328  182.3107   44.5883   -0.0000   -0.0000
       2    322.9328  607.4825  182.3107  -44.5883    0.0000    0.0000
       3    182.3107  182.3107  606.3443    0.0000   -0.0000   -0.0000
       4     44.5883  -44.5883    0.0000   95.6199    0.0000    0.0000
       5     -0.0000    0.0000   -0.0000    0.0000   95.6199   44.5883
       6     -0.0000    0.0000   -0.0000    0.0000   44.5883  142.2748
-------------------------------------------------------------------------------


  Elastic Compliance Matrix: (Units=1/GPa)

-------------------------------------------------------------------------------
  Indices      1         2         3         4         5         6    
-------------------------------------------------------------------------------
       1    0.002667 -0.001449 -0.000366 -0.001919  0.000000  0.000000
       2   -0.001449  0.002667 -0.000366  0.001919 -0.000000 -0.000000
       3   -0.000366 -0.000366  0.001870  0.000000 -0.000000  0.000000
       4   -0.001919  0.001919  0.000000  0.012248 -0.000000 -0.000000
       5    0.000000 -0.000000 -0.000000 -0.000000  0.012248 -0.003838
       6    0.000000 -0.000000  0.000000 -0.000000 -0.003838  0.008232
-------------------------------------------------------------------------------

  Mechanical properties :

-------------------------------------------------------------------------------
  Convention :                    Reuss         Voigt         Hill
-------------------------------------------------------------------------------
  Bulk  Modulus (GPa)     =     351.99895     355.15751     353.57823
  Shear Modulus (GPa)     =     110.51937     142.28660     126.40298
-------------------------------------------------------------------------------
  Velocity S-wave (km/s)  =       5.33688       6.05550       5.70751
  Velocity P-wave (km/s)  =      11.34421      11.84993      11.59983
-------------------------------------------------------------------------------
  Compressibility (1/GPa) =    0.00284092
-------------------------------------------------------------------------------
  Stress axis :                     x             y             z
-------------------------------------------------------------------------------
  Youngs Moduli (GPa)     =     374.94257     374.94257     534.89837
-------------------------------------------------------------------------------
  Poissons Ratio (x)      =                     0.54319       0.19595
  Poissons Ratio (y)      =       0.54319                     0.19595
  Poissons Ratio (z)      =       0.13735       0.13735
-------------------------------------------------------------------------------


  Piezoelectric Strain Matrix: (Units=C/m**2)

-------------------------------------------------------------------------------
  Indices      1         2         3         4         5         6    
-------------------------------------------------------------------------------
       x     0.00000  -0.00000   0.00000  -0.00000  -0.00000   0.00000
       y    -0.00000   0.00000   0.00000   0.00000  -0.00000   0.00000
       z    -0.00000   0.00000  -0.00000  -0.00000  -0.00000  -0.00000
-------------------------------------------------------------------------------


  Piezoelectric Stress Matrix: (Units=10**-11 C/N)

-------------------------------------------------------------------------------
  Indices      1         2         3         4         5         6    
-------------------------------------------------------------------------------
       x     0.00000  -0.00000   0.00000  -0.00000  -0.00000   0.00000
       y    -0.00000   0.00000   0.00000   0.00000  -0.00000   0.00000
       z    -0.00000   0.00000  -0.00000  -0.00000  -0.00000  -0.00000
-------------------------------------------------------------------------------


  Static dielectric constant tensor : 

-------------------------------------------------------------------------------
              x         y         z
-------------------------------------------------------------------------------
       x    11.29403   0.00000   0.00000
       y     0.00000  11.29403  -0.00000
       z     0.00000  -0.00000  16.36609
--------------------------------------------------------------------------------

  High frequency dielectric constant tensor : 

-------------------------------------------------------------------------------
              x         y         z
-------------------------------------------------------------------------------
       x     5.63019   0.00000   0.00000
       y     0.00000   5.63019  -0.00000
       z     0.00000  -0.00000   6.08941
-------------------------------------------------------------------------------

  Static refractive indices : 

-------------------------------------------------------------------------------
    1 =    3.36066      2 =    3.36066      3 =    4.04550
-------------------------------------------------------------------------------

  High frequency refractive indices : 

-------------------------------------------------------------------------------
    1 =    2.37280      2 =    2.37280      3 =    2.46767
-------------------------------------------------------------------------------


  Time to end of optimisation =       0.1044 seconds


  Peak dynamic memory used =       1.94 MB 


  Timing analysis for GULP :

--------------------------------------------------------------------------------
  Task / Subroutine                                          Time (Seconds)
--------------------------------------------------------------------------------
  Calculation of reciprocal space energy and derivatives          0.0037
  Calculation of real space energy and derivatives                0.0924
  Calculation of matrix inversion                                 0.0001
  Symmetry generation of equivalent positions                     0.0003
--------------------------------------------------------------------------------
  Total CPU time                                                  0.1045
--------------------------------------------------------------------------------


  Dump file written as example68.res


  Job Finished at 12:00.57  8th July       2020                               

