********************************************************************************
*                       GENERAL UTILITY LATTICE PROGRAM                        *
*                                 Julian Gale                                  *
*                       Curtin Institute for Computation                       *
*                    School of Molecular and Life Sciences                     *
*                    Curtin University, Western Australia                      *
********************************************************************************
* Version = 6.0.0 * Last modified =   7th July 2020                            *
********************************************************************************
*  gradient     - perform gradient run                                         *
*  conp         - constant pressure calculation                                *
*  property     - calculate properties for final geometry                      *
********************************************************************************

  Job Started  at 11:50.30  8th July       2020                               

  Number of CPUs =     1

  Host name      = M-A0034725                              


  Total number of configurations input =      1

********************************************************************************
*  Input for Configuration =   1                                               *
********************************************************************************

  Formula = Ag4                                                         

  Number of irreducible atoms/shells =       4


  Total number atoms/shells =       4

  Dimensionality = 3               :  Bulk   



  Cartesian lattice vectors (Angstroms) :

        4.090000    0.000000    0.000000
        0.000000    4.090000    0.000000
        0.000000    0.000000    4.090000

  Cell parameters (Angstroms/Degrees):

  a =       4.0900    alpha =  90.0000
  b =       4.0900    beta  =  90.0000
  c =       4.0900    gamma =  90.0000

  Initial cell volume =          68.417929 Angs**3

  Temperature of configuration =   0.00     K 

  Pressure of configuration =         0.000 GPa 

  Fractional coordinates of asymmetric unit :

--------------------------------------------------------------------------------
   No.  Atomic       x           y          z         Charge      Occupancy
        Label      (Frac)      (Frac)     (Frac)        (e)         (Frac)  
--------------------------------------------------------------------------------
      1 Ag    c    0.000000    0.000000    0.000000     0.00000    1.000000    
      2 Ag    c    0.000000 *  0.500000 *  0.500000 *   0.00000    1.000000    
      3 Ag    c    0.500000 *  0.000000 *  0.500000 *   0.00000    1.000000    
      4 Ag    c    0.500000 *  0.500000 *  0.000000 *   0.00000    1.000000    
--------------------------------------------------------------------------------



********************************************************************************
*  General input information                                                   *
********************************************************************************

  Species output for all configurations : 

--------------------------------------------------------------------------------
  Species    Type    Atomic    Atomic    Charge       Radii (Angs)     Library
                     Number     Mass       (e)     Cova   Ionic  VDW   Symbol
--------------------------------------------------------------------------------
    Ag       Core       47     107.87   0.000000   1.590  0.000  2.370          
--------------------------------------------------------------------------------


  Lattice summation method               =    Ewald          (3-D)
                                         =    Parry          (2-D)
                                         =    Saunders et al (1-D)
  Accuracy factor for lattice sums       =   12.000


  Analytic derivatives to be used

  Time limit = Infinity

  Maximum range for interatomic potentials =         5.542000 Angstroms

  Taper potentials to zero over   5.5420 Angstroms using Voter m =  20.0000

  General interatomic potentials :

--------------------------------------------------------------------------------
Atom  Types   Potential      Parameter       Value         Units   Cutoffs(Ang)
  1     2                                                            Min /  Max 
--------------------------------------------------------------------------------
Ag   c Ag   c Morse         Morse  De       0.67210000    eV        0.000  5.542
                            Morse  a0        1.8260000    Ang^-1    
                            Morse  r0        2.5700000    Ang       
--------------------------------------------------------------------------------
Ag   c Ag   c Many-body                                             0.000  5.542
--------------------------------------------------------------------------------
Ag   c Ag   c EAM pot shift EAM pot g        10.426298    None      0.000  5.542
                            EAM pot beta     3.9060000    Ang^-1    
--------------------------------------------------------------------------------

  Embedded Atom Model Densities :

--------------------------------------------------------------------------------
  Atom(s)       Functional Form          A          B          C         n      
--------------------------------------------------------------------------------
  Ag   c        Voter-Chen           1.000      3.906      0.000         0
--------------------------------------------------------------------------------


  Embedded Atom Model alloy parameters :

--------------------------------------------------------------------------------
  Atom(s)                          Scale factor 
--------------------------------------------------------------------------------
  Ag    c                            1.000000
--------------------------------------------------------------------------------

  Embedded Atom Model functional = Numerical 

--------------------------------------------------------------------------------
  Atom    Filename 
--------------------------------------------------------------------------------
  Ag    c ag.dbout                                                              
--------------------------------------------------------------------------------


  Manybody second derivative cross term cutoffs to be scaled by = 0.50000000

********************************************************************************
*  Output for configuration   1                                                *
********************************************************************************


  Components of energy : 

--------------------------------------------------------------------------------
  Interatomic potentials     =          89.74197175 eV    
  Many-body potentials       =        -101.99148539 eV    
  Monopole - monopole (real) =           0.00000000 eV    
  Monopole - monopole (recip)=           0.00000000 eV    
  Monopole - monopole (total)=           0.00000000 eV    
--------------------------------------------------------------------------------
  Total lattice energy       =         -12.24951363 eV    
--------------------------------------------------------------------------------
  Total lattice energy       =           -1181.8908 kJ/(mole unit cells)
--------------------------------------------------------------------------------


  Elastic Constant Matrix: (Units=GPa)

-------------------------------------------------------------------------------
  Indices      1         2         3         4         5         6    
-------------------------------------------------------------------------------
       1    127.7907   94.5259   94.5259   -0.0000   -0.0000    0.0000
       2     94.5259  127.7907   94.5259   -0.0000    0.0000    0.0000
       3     94.5259   94.5259  127.7907   -0.0000   -0.0000   -0.0000
       4     -0.0000   -0.0000   -0.0000   48.6906    0.0000    0.0000
       5     -0.0000    0.0000   -0.0000    0.0000   48.6906   -0.0000
       6      0.0000    0.0000   -0.0000    0.0000   -0.0000   48.6906
-------------------------------------------------------------------------------


  Elastic Compliance Matrix: (Units=1/GPa)

-------------------------------------------------------------------------------
  Indices      1         2         3         4         5         6    
-------------------------------------------------------------------------------
       1    0.021093 -0.008969 -0.008969 -0.000000  0.000000 -0.000000
       2   -0.008969  0.021093 -0.008969  0.000000 -0.000000 -0.000000
       3   -0.008969 -0.008969  0.021093  0.000000  0.000000  0.000000
       4   -0.000000  0.000000  0.000000  0.020538 -0.000000 -0.000000
       5    0.000000 -0.000000  0.000000 -0.000000  0.020538  0.000000
       6   -0.000000 -0.000000  0.000000 -0.000000  0.000000  0.020538
-------------------------------------------------------------------------------

  Mechanical properties :

-------------------------------------------------------------------------------
  Convention :                    Reuss         Voigt         Hill
-------------------------------------------------------------------------------
  Bulk  Modulus (GPa)     =     105.61416     105.61416     105.61416
  Shear Modulus (GPa)     =      27.49359      35.86735      31.68047
-------------------------------------------------------------------------------
  Velocity S-wave (km/s)  =       1.62029       1.85066       1.73929
  Velocity P-wave (km/s)  =       3.68584       3.82774       3.75746
-------------------------------------------------------------------------------
  Compressibility (1/GPa) =    0.00946843
-------------------------------------------------------------------------------
  Stress axis :                     x             y             z
-------------------------------------------------------------------------------
  Youngs Moduli (GPa)     =      47.40858      47.40858      47.40858
-------------------------------------------------------------------------------
  Poissons Ratio (x)      =                     0.42519       0.42519
  Poissons Ratio (y)      =       0.42519                     0.42519
  Poissons Ratio (z)      =       0.42519       0.42519
-------------------------------------------------------------------------------


  Piezoelectric Strain Matrix: (Units=C/m**2)

-------------------------------------------------------------------------------
  Indices      1         2         3         4         5         6    
-------------------------------------------------------------------------------
       x    -0.00000  -0.00000  -0.00000  -0.00000  -0.00000  -0.00000
       y    -0.00000  -0.00000  -0.00000  -0.00000  -0.00000  -0.00000
       z    -0.00000  -0.00000  -0.00000  -0.00000  -0.00000  -0.00000
-------------------------------------------------------------------------------


  Piezoelectric Stress Matrix: (Units=10**-11 C/N)

-------------------------------------------------------------------------------
  Indices      1         2         3         4         5         6    
-------------------------------------------------------------------------------
       x     0.00000   0.00000   0.00000   0.00000   0.00000   0.00000
       y     0.00000   0.00000   0.00000   0.00000   0.00000   0.00000
       z     0.00000   0.00000   0.00000   0.00000   0.00000   0.00000
-------------------------------------------------------------------------------


  Static dielectric constant tensor : 

-------------------------------------------------------------------------------
              x         y         z
-------------------------------------------------------------------------------
       x     1.00000   0.00000   0.00000
       y     0.00000   1.00000   0.00000
       z     0.00000   0.00000   1.00000
--------------------------------------------------------------------------------

  Static refractive indices : 

-------------------------------------------------------------------------------
    1 =    1.00000      2 =    1.00000      3 =    1.00000
-------------------------------------------------------------------------------



  Final Cartesian lattice vectors (Angstroms) :

        4.090000    0.000000    0.000000
        0.000000    4.090000    0.000000
        0.000000    0.000000    4.090000


  Final cell parameters and derivatives :

--------------------------------------------------------------------------------
       a            4.090000 Angstrom     dE/de1(xx)     0.087926 eV/strain
       b            4.090000 Angstrom     dE/de2(yy)     0.087926 eV/strain
       c            4.090000 Angstrom     dE/de3(zz)     0.087926 eV/strain
       alpha       90.000000 Degrees      dE/de4(yz)     0.000000 eV/strain
       beta        90.000000 Degrees      dE/de5(xz)     0.000000 eV/strain
       gamma       90.000000 Degrees      dE/de6(xy)     0.000000 eV/strain
--------------------------------------------------------------------------------

  Primitive cell volume =            68.417929 Angs**3

  Density of cell =     10.472413 g/cm**3

  Non-primitive cell volume =            68.417929 Angs**3


  Final internal derivatives :

--------------------------------------------------------------------------------
   No.  Atomic          a             b             c           Radius
        Label          (eV)          (eV)          (eV)        (eV/Angs)
--------------------------------------------------------------------------------
      1 Ag    c       0.000000      0.000000      0.000000      0.000000
      2 Ag    c       0.000000      0.000000      0.000000      0.000000
      3 Ag    c      -0.000000      0.000000      0.000000      0.000000
      4 Ag    c      -0.000000      0.000000      0.000000      0.000000
--------------------------------------------------------------------------------
  Maximum abs         0.000000      0.000000      0.000000      0.000000
--------------------------------------------------------------------------------


  Time to end of properties =       0.0247 seconds


  Peak dynamic memory used =       1.83 MB 


  Timing analysis for GULP :

--------------------------------------------------------------------------------
  Task / Subroutine                                          Time (Seconds)
--------------------------------------------------------------------------------
  Calculation of many-body energy and derivatives                 0.0192
--------------------------------------------------------------------------------
  Total CPU time                                                  0.0248
--------------------------------------------------------------------------------


  Job Finished at 11:50.30  8th July       2020                               

