********************************************************************************
*                       GENERAL UTILITY LATTICE PROGRAM                        *
*                                 Julian Gale                                  *
*                       Curtin Institute for Computation                       *
*                    School of Molecular and Life Sciences                     *
*                    Curtin University, Western Australia                      *
********************************************************************************
* Version = 6.0.0 * Last modified =   7th July 2020                            *
********************************************************************************
*  fit          - perform fitting run                                          *
*  conp         - constant pressure calculation                                *
********************************************************************************

  Job Started  at 12:01.19  8th July       2020                               

  Number of CPUs =     1

  Host name      = M-A0034725                              


  Total number of configurations input =      1

********************************************************************************
*  Input for Configuration =   1                                               *
********************************************************************************

  Formula = CaO                                                         

  Number of irreducible atoms/shells =       3


  Total number atoms/shells =       3

  Dimensionality = 0               :  Cluster


  Charge on cluster =   0.000000


  Initial cluster dipoles : x =     -4.440000 e.Angs
                            y =      0.000000 e.Angs
                            z =      0.000000 e.Angs

  Temperature of configuration =   0.00     K 

  Symmetry number =      1

  Cartesian coordinates of cluster :

--------------------------------------------------------------------------------
   No.  Atomic       x           y          z         Charge      Occupancy
        Label      (Angs)      (Angs)     (Angs)        (e)         (Frac)  
--------------------------------------------------------------------------------
      1 Ca    c      0.0000      0.0000      0.0000     2.00000    1.000000    
      2 O     c      2.5000 *    0.0000 *    0.0000 *   0.80000    1.000000    
      3 O     s      2.3000 *    0.0000 *    0.0000 *  -2.80000    1.000000    
--------------------------------------------------------------------------------



********************************************************************************
*  General input information                                                   *
********************************************************************************

  Species output for all configurations : 

--------------------------------------------------------------------------------
  Species    Type    Atomic    Atomic    Charge       Radii (Angs)     Library
                     Number     Mass       (e)     Cova   Ionic  VDW   Symbol
--------------------------------------------------------------------------------
    Ca       Core       20      40.08   2.000000   0.990  0.000  2.750          
    O        Core        8      16.00   0.800000   0.730  0.000  1.360          
    O        Shell       8       0.00  -2.800000   0.730  0.000  1.360          
--------------------------------------------------------------------------------


  Accuracy factor for short range sums = 12.000

  Electrostatics method = Direct Coulomb

  Analytic derivatives to be used

  Time limit = Infinity

  Maximum range for interatomic potentials =    100000.000000 Angstroms

  General interatomic potentials :

--------------------------------------------------------------------------------
Atom  Types   Potential      Parameter       Value         Units   Cutoffs(Ang)
  1     2                                                            Min /  Max 
--------------------------------------------------------------------------------
Ca   c O    s Buckingham    Buckingham A     2300.0000    eV        0.000 10.000
                            Buckingham rho  0.30000000    Ang       
                            Buckingham C     0.0000000    eV*Ang^6  
--------------------------------------------------------------------------------
O    c O    s Spring (c-s)  Spring k 2       75.000000    eV*Ang^-2 0.000  0.800
                            Spring k 4       0.0000000    eV*Ang^-4 
--------------------------------------------------------------------------------


  Number of variables   =    1
  Number of observables =    3

--------------------------------------------------------------------------------
   Observable no.  Type           Observable    Weight       Reference  Confign 
--------------------------------------------------------------------------------
          1        Derivative        3.400000        1.0000    2 x         1
          2        Derivative        0.000000        1.0000    2 y         1
--------------------------------------------------------------------------------

  Variables :

--------------------------------------------------------------------------------
     Parameter No.       Parameter Value          Parameter Type  Species
--------------------------------------------------------------------------------
             1               2300.000000          Buckingham A   
--------------------------------------------------------------------------------

  Symmetry not used for fitting
  First derivatives of residuals to be used in fitting

  Maximum no. of cycles   =       5000
  Maximum step size       =  1000.0000
  Tolerance on parameters =  0.0000100
  Tolerance on function   =  0.0000100
  Tolerance on gradient   =  0.0001000
  Differencing interval   =  0.0001000

  Dumpfile to be written after every cycle

  Start of fitting :

  Cycle:      0  Sum sqs:      20.865843  Gnorm:     32.791669  CPU:    0.006
  ** Hessian calculated **


  **** Fit completed successfully ****


  Final sum of squares =             0.000000

  Final gradient norm  =             0.000000

  Final values of parameters :

--------------------------------------------------------------------------------
 Parameter No.    Parameter        Parameter      Parameter Type  Species
                  Original         Final                                 
--------------------------------------------------------------------------------
         1           2300.000000      5227.050750 Buckingham A   
--------------------------------------------------------------------------------


  Final values of numerical parameter gradients :

--------------------------------------------------------------------------------
     Parameter No.       Parameter Gradient      Parameter Type  Species
--------------------------------------------------------------------------------
             1                  0.000000          Buckingham A   
--------------------------------------------------------------------------------


  Final values of residuals :

--------------------------------------------------------------------------------
   Observable no.  Type            Observable   Calculated    Residual  Error(%)
--------------------------------------------------------------------------------
          1        Derivative         3.40000      3.40000      0.00000
          2        Derivative         0.00000      0.00000      0.00000
          3        Derivative         0.00000      0.00000      0.00000
--------------------------------------------------------------------------------

  Comparison of initial and final observables :

--------------------------------------------------------------------------------
   Observable no.  Type            Observable   Initial       Final             
--------------------------------------------------------------------------------
          1        Derivative         3.40000      7.96827      3.40000
          2        Derivative         0.00000      0.00000      0.00000
          3        Derivative         0.00000      0.00000      0.00000
--------------------------------------------------------------------------------

  Maximum range for interatomic potentials =    100000.000000 Angstroms

  General interatomic potentials :

--------------------------------------------------------------------------------
Atom  Types   Potential      Parameter       Value         Units   Cutoffs(Ang)
  1     2                                                            Min /  Max 
--------------------------------------------------------------------------------
Ca   c O    s Buckingham    Buckingham A     5227.0507    eV        0.000 10.000
                            Buckingham rho  0.30000000    Ang       
                            Buckingham C     0.0000000    eV*Ang^6  
--------------------------------------------------------------------------------
O    c O    s Spring (c-s)  Spring k 2       75.000000    eV*Ang^-2 0.000  0.800
                            Spring k 4       0.0000000    eV*Ang^-4 
--------------------------------------------------------------------------------



  Total time to end of fitting =       0.0060 seconds

********************************************************************************
*  Output for configuration   1                                                *
********************************************************************************


  Components of energy : 

--------------------------------------------------------------------------------
  Interatomic potentials     =           3.94717873 eV    
  Monopole - monopole (real) =         -25.84443595 eV    
--------------------------------------------------------------------------------
  Total lattice energy       =         -21.89725722 eV    
--------------------------------------------------------------------------------
  Total lattice energy       =           -2112.7506 kJ/mol
--------------------------------------------------------------------------------

  Peak dynamic memory used =       1.78 MB 


  Timing analysis for GULP :

--------------------------------------------------------------------------------
  Task / Subroutine                                          Time (Seconds)
--------------------------------------------------------------------------------
  Sum of squares for fitting                                      0.0001
--------------------------------------------------------------------------------
  Total CPU time                                                  0.0062
--------------------------------------------------------------------------------


  Dump file written as example71.res


  Job Finished at 12:01.19  8th July       2020                               

