********************************************************************************
*                       GENERAL UTILITY LATTICE PROGRAM                        *
*                                 Julian Gale                                  *
*                       Curtin Institute for Computation                       *
*                    School of Molecular and Life Sciences                     *
*                    Curtin University, Western Australia                      *
********************************************************************************
* Version = 6.0.0 * Last modified =   7th July 2020                            *
********************************************************************************
*  optimise     - perform optimisation run                                     *
*  conv         - constant volume calculation                                  *
********************************************************************************

  Job Started  at 11:50.27  8th July       2020                               

  Number of CPUs =     1

  Host name      = M-A0034725                              


  Total number of configurations input =      1

********************************************************************************
*  Input for Configuration =   1 : diamond111                                  *
********************************************************************************

  Formula = C32                                                         

  Number of irreducible atoms/shells =      32


  Total number atoms/shells =      32

  Dimensionality = 2               :  Surface



  Surface Cartesian vectors (Angstroms) :

        5.042909   -0.000000    0.000000
        2.521455   -4.367287    0.000000

  Surface cell parameters (Angstroms/Degrees):

  a =       5.0429    alpha =  60.0000
  b =       5.0429

  Initial surface area   =     22.023831 Angs**2

  Initial surface dipole =      0.000000 e.Angs

  Temperature of configuration =   0.00     K 

  Mixed fractional/Cartesian coordinates of surface :

--------------------------------------------------------------------------------
   No.  Atomic       x           y          z         Charge      Occupancy
        Label      (Frac)      (Frac)     (Angs)        (e)         (Frac)  
--------------------------------------------------------------------------------
  Region 1 : 
--------------------------------------------------------------------------------
      1 C     c    0.000000 *  0.000000 *   -6.1763 *   0.00000    1.000000    
      2 C     c    0.000000 *  0.000000 *   -4.6322 *   0.00000    1.000000    
      3 C     c    0.833333 *  0.333333 *   -4.1175 *   0.00000    1.000000    
      4 C     c    0.333333 *  0.833333 *   -4.1175 *   0.00000    1.000000    
      5 C     c    0.833333 *  0.833333 *   -4.1175 *   0.00000    1.000000    
      6 C     c    0.333333 *  0.333333 *   -4.1175 *   0.00000    1.000000    
      7 C     c    0.333333 *  0.333333 *   -2.5734 *   0.00000    1.000000    
      8 C     c    0.833333 *  0.333333 *   -2.5734 *   0.00000    1.000000    
      9 C     c    0.333333 *  0.833333 *   -2.5734 *   0.00000    1.000000    
     10 C     c    0.833333 *  0.833333 *   -2.5734 *   0.00000    1.000000    
     11 C     c    0.166666 *  0.666667 *   -2.0588 *   0.00000    1.000000    
     12 C     c    0.666667 *  0.166667 *   -2.0588 *   0.00000    1.000000    
     13 C     c    0.166667 *  0.166667 *   -2.0588 *   0.00000    1.000000    
     14 C     c    0.166667 *  0.666667 *   -0.5147 *   0.00000    1.000000    
     15 C     c    0.666667 *  0.166667 *   -0.5147 *   0.00000    1.000000    
     16 C     c    0.166667 *  0.166667 *   -0.5147 *   0.00000    1.000000    
--------------------------------------------------------------------------------
  Region 2 :  Rigid translation fixed in xyz
--------------------------------------------------------------------------------
     17 C     c    0.333333    0.333333    -10.2938     0.00000    1.000000    
     18 C     c    0.333333    0.333333     -8.7497     0.00000    1.000000    
     19 C     c    0.166666    0.666667     -8.2350     0.00000    1.000000    
     20 C     c    0.666667    0.166667     -8.2350     0.00000    1.000000    
     21 C     c    0.166667    0.166667     -8.2350     0.00000    1.000000    
     22 C     c    0.666667    0.666667     -8.2350     0.00000    1.000000    
     23 C     c    0.166667    0.666667     -6.6910     0.00000    1.000000    
     24 C     c    0.666667    0.166667     -6.6910     0.00000    1.000000    
     25 C     c    0.166667    0.166667     -6.6910     0.00000    1.000000    
     26 C     c    0.666667    0.666667     -6.6910     0.00000    1.000000    
     27 C     c    0.500000    0.000000     -6.1763     0.00000    1.000000    
     28 C     c    1.000000    0.500000     -6.1763     0.00000    1.000000    
     29 C     c    0.500000    0.500000     -6.1763     0.00000    1.000000    
     30 C     c    0.500000    0.000000     -4.6322     0.00000    1.000000    
     31 C     c    1.000000    0.500000     -4.6322     0.00000    1.000000    
     32 C     c    0.500000    0.500000     -4.6322     0.00000    1.000000    
--------------------------------------------------------------------------------



  Growth Slice : 

  Number of formula units in slice =    6

  Mixed fractional/Cartesian coordinates

--------------------------------------------------------------------------------
   No.  Atomic       x           y          z         Charge      Occupancy
        Label      (Frac)      (Frac)     (Angs)        (e)         (Frac)  
--------------------------------------------------------------------------------
     11 C     c    0.166666    0.666667     -2.0588      0.0000    1.000000
     12 C     c    0.666667    0.166667     -2.0588      0.0000    1.000000
     13 C     c    0.166667    0.166667     -2.0588      0.0000    1.000000
     14 C     c    0.166667    0.666667     -0.5147      0.0000    1.000000
     15 C     c    0.666667    0.166667     -0.5147      0.0000    1.000000
     16 C     c    0.166667    0.166667     -0.5147      0.0000    1.000000
--------------------------------------------------------------------------------



********************************************************************************
*  General input information                                                   *
********************************************************************************

  Species output for all configurations : 

--------------------------------------------------------------------------------
  Species    Type    Atomic    Atomic    Charge       Radii (Angs)     Library
                     Number     Mass       (e)     Cova   Ionic  VDW   Symbol
--------------------------------------------------------------------------------
    C        Core        6      12.01   0.000000   0.770  0.000  1.530          
--------------------------------------------------------------------------------


  Lattice summation method               =    Ewald          (3-D)
                                         =    Parry          (2-D)
                                         =    Saunders et al (1-D)
  Accuracy factor for lattice sums       =   12.000


  Analytic derivatives to be used

  Time limit = Infinity

  Maximum range for interatomic potentials =    100000.000000 Angstroms

  Brenner et al 2002 potential to be used with explicit splines for P


********************************************************************************
*  Output for configuration   1 : diamond111                                   *
********************************************************************************


  Components of energy : 

--------------------------------------------------------------------------------
  Interatomic potentials     =           0.00000000 eV    
  Brenner potentials         =         -75.82999216 eV    
  Monopole - monopole (real) =           0.00000000 eV    
  Monopole - monopole (recip)=           0.00000000 eV    
  Monopole - monopole (total)=           0.00000000 eV    
  Region 1-2 interaction     =         -44.21842479 eV    
  Region 2-2 interaction     =         -75.13529849 eV    
--------------------------------------------------------------------------------
  Total lattice energy       =        -195.18371544 eV    
--------------------------------------------------------------------------------
  Total lattice energy       =          -18832.2449 kJ/(mole unit cells)
--------------------------------------------------------------------------------
  Bulk energy                =          -117.901405 eV    
  Surface energy (region 1)  =            14.522120 J/m**2
--------------------------------------------------------------------------------
  Attachment energy          =         -32.76124694 eV    
  Attachment energy/unit     =          -5.46020782 eV    
--------------------------------------------------------------------------------


  Number of variables =       48

  Maximum number of calculations  =          1000
  Maximum Hessian update interval =            10
  Maximum step size               =   1.000000000
  Maximum parameter tolerance     =   0.000010000
  Maximum function  tolerance     =   0.000010000
  Maximum gradient  tolerance     =   0.001000000
  Maximum gradient  component     =   0.010000000

  Symmetry not applied to optimisation

  Newton-Raphson optimiser to be used

  BFGS hessian update to be used

  Lower half triangular hessian to be used

  Start of surface optimisation :

  Cycle:      0 Energy:      -195.183715  Gnorm:      0.762852  CPU:    0.019
  ** Hessian calculated **
  Cycle:      1 Energy:      -196.369748  Gnorm:      0.298346  CPU:    0.020
  Cycle:      2 Energy:      -196.612181  Gnorm:      0.124009  CPU:    0.020
  Cycle:      3 Energy:      -196.663188  Gnorm:      0.023900  CPU:    0.021
  Cycle:      4 Energy:      -196.664117  Gnorm:      0.004896  CPU:    0.022
  Cycle:      5 Energy:      -196.664153  Gnorm:      0.000514  CPU:    0.023


  **** Optimisation achieved ****


  Final energy =    -196.66415383 eV
  Final Gnorm  =       0.00004115

  Components of energy : 

--------------------------------------------------------------------------------
  Interatomic potentials     =           0.00000000 eV    
  Brenner potentials         =         -77.11782602 eV    
  Monopole - monopole (real) =           0.00000000 eV    
  Monopole - monopole (recip)=           0.00000000 eV    
  Monopole - monopole (total)=           0.00000000 eV    
  Region 1-2 interaction     =         -44.44401031 eV    
  Region 2-2 interaction     =         -75.10231750 eV    
--------------------------------------------------------------------------------
  Total lattice energy       =        -196.66415383 eV    
--------------------------------------------------------------------------------
  Total lattice energy       =          -18975.0846 kJ/(mole unit cells)
--------------------------------------------------------------------------------
  Bulk energy                =          -117.901405 eV    
  Surface energy (region 1)  =            13.503191 J/m**2
--------------------------------------------------------------------------------
  Attachment energy          =         -32.51843213 eV    
  Attachment energy/unit     =          -5.41973869 eV    
--------------------------------------------------------------------------------

  Final fractional/Cartesian coordinates of atoms :

--------------------------------------------------------------------------------
   No.  Atomic        x           y          z          Radius
        Label       (Frac)      (Frac)     (Angs)       (Angs) 
--------------------------------------------------------------------------------
     1  C     c     1.000000    0.000000   -6.190344    0.000000
     2  C     c     1.000000    1.000000   -4.671922    0.000000
     3  C     c     0.833421    0.333157   -4.134191    0.000000
     4  C     c     0.333157    0.833421   -4.134191    0.000000
     5  C     c     0.833421    0.833422   -4.134191    0.000000
     6  C     c     0.333333    0.333333   -4.102140    0.000000
     7  C     c     0.333333    0.333333   -2.546685    0.000000
     8  C     c     0.848775    0.302449   -2.613125    0.000000
     9  C     c     0.302449    0.848775   -2.613125    0.000000
    10  C     c     0.848775    0.848775   -2.613125    0.000000
    11  C     c     0.171019    0.657963   -1.994545    0.000000
    12  C     c     0.657963    0.171019   -1.994545    0.000000
    13  C     c     0.171019    0.171019   -1.994545    0.000000
    14  C     c     0.168583    0.662834   -0.581329    0.000000
    15  C     c     0.662834    0.168583   -0.581328    0.000000
    16  C     c     0.168583    0.168583   -0.581328    0.000000
    17  C     c     0.333333    0.333333  -10.293795    0.000000
    18  C     c     0.333333    0.333333   -8.749725    0.000000
    19  C     c     0.166666    0.666667   -8.235036    0.000000
    20  C     c     0.666667    0.166667   -8.235036    0.000000
    21  C     c     0.166667    0.166667   -8.235036    0.000000
    22  C     c     0.666667    0.666667   -8.235035    0.000000
    23  C     c     0.166667    0.666667   -6.690967    0.000000
    24  C     c     0.666667    0.166667   -6.690967    0.000000
    25  C     c     0.166667    0.166667   -6.690967    0.000000
    26  C     c     0.666667    0.666667   -6.690966    0.000000
    27  C     c     0.500000    0.000000   -6.176276    0.000000
    28  C     c     1.000000    0.500000   -6.176276    0.000000
    29  C     c     0.500000    0.500000   -6.176276    0.000000
    30  C     c     0.500000    0.000000   -4.632207    0.000000
    31  C     c     1.000000    0.500000   -4.632207    0.000000
    32  C     c     0.500000    0.500000   -4.632207    0.000000
--------------------------------------------------------------------------------

  Final internal/Cartesian derivatives :

--------------------------------------------------------------------------------
   No.  Atomic          a             b             z           Radius
        Label          (eV)          (eV)       (eV/Angs)      (eV/Angs)
--------------------------------------------------------------------------------
      1 C     c       0.000000      0.000000     -0.000001      0.000000
      2 C     c       0.000000     -0.000000     -0.000259      0.000000
      3 C     c       0.000000     -0.000506      0.000107      0.000000
      4 C     c      -0.000507     -0.000000      0.000107      0.000000
      5 C     c       0.000507      0.000506      0.000107      0.000000
      6 C     c      -0.000000      0.000000      0.000009      0.000000
      7 C     c       0.000001     -0.000002      0.000371      0.000000
      8 C     c      -0.000001      0.000730     -0.000199      0.000000
      9 C     c       0.000735      0.000002     -0.000198      0.000000
     10 C     c      -0.000733     -0.000731     -0.000198      0.000000
     11 C     c       0.000000     -0.000078     -0.000062      0.000000
     12 C     c      -0.000082     -0.000000     -0.000098      0.000000
     13 C     c       0.000080      0.000080     -0.000082      0.000000
     14 C     c      -0.000000     -0.000276      0.000065      0.000000
     15 C     c      -0.000275      0.000000      0.000106      0.000000
     16 C     c       0.000275      0.000275      0.000088      0.000000
     17 C     c       0.000000      0.000000      0.000000      0.000000
     18 C     c       0.000000      0.000000      0.000000      0.000000
     19 C     c       0.000000      0.000000      0.000000      0.000000
     20 C     c       0.000000      0.000000      0.000000      0.000000
     21 C     c       0.000000      0.000000      0.000000      0.000000
     22 C     c       0.000000      0.000000      0.000000      0.000000
     23 C     c       0.000000      0.000000      0.000000      0.000000
     24 C     c       0.000000      0.000000      0.000000      0.000000
     25 C     c       0.000000      0.000000      0.000000      0.000000
     26 C     c       0.000000      0.000000      0.000000      0.000000
     27 C     c       0.000000      0.000000      0.000000      0.000000
     28 C     c       0.000000      0.000000      0.000000      0.000000
     29 C     c       0.000000      0.000000      0.000000      0.000000
     30 C     c       0.000000      0.000000      0.000000      0.000000
     31 C     c       0.000000      0.000000      0.000000      0.000000
     32 C     c       0.000000      0.000000      0.000000      0.000000
--------------------------------------------------------------------------------
  Maximum abs         0.000735      0.000731      0.000371      0.000000
--------------------------------------------------------------------------------


  Time to end of optimisation =       0.0239 seconds


  Peak dynamic memory used =       2.07 MB 


  Timing analysis for GULP :

--------------------------------------------------------------------------------
  Task / Subroutine                                          Time (Seconds)
--------------------------------------------------------------------------------
  Calculation of Brenner energy and derivatives                   0.0176
--------------------------------------------------------------------------------
  Total CPU time                                                  0.0239
--------------------------------------------------------------------------------


  Job Finished at 11:50.27  8th July       2020                               

