********************************************************************************
*                       GENERAL UTILITY LATTICE PROGRAM                        *
*                                 Julian Gale                                  *
*                       Curtin Institute for Computation                       *
*                    School of Molecular and Life Sciences                     *
*                    Curtin University, Western Australia                      *
********************************************************************************
* Version = 6.0.0 * Last modified =   7th July 2020                            *
********************************************************************************
*  gradient     - perform gradient run                                         *
*  conv         - constant volume calculation                                  *
*  property     - calculate properties for final geometry                      *
*  phonon       - calculate phonons for final geometry                         *
*  thermal      - calculate thermal conductivity for final geometry            *
*  broaden_dos  - broaden density of states curves                             *
********************************************************************************
* This is an example of the calculation of the Allen-Feldman                   *
* diffuson contribution to the thermal conductivity in                         *
* amorphous silicon based on one of the structures proposed by                 *
* Barkema and Mousseau, Phys. Rev. Lett., 77, 4358 (1996)                      *
* that has been relaxed using the GULP Stillinger-Weber                        *
* library. The parameters for the thermal conductivity                         *
* calculation come from the work of Larkin and McGaughey                       *
* (submitted), though it should be noted they are for a                        *
* larger 4096 atom system.                                                     *
********************************************************************************


  Job Started  at 11:50.42  8th July       2020                               

  Number of CPUs =     1

  Host name      = M-A0034725                              


  Total number of configurations input =      1

********************************************************************************
*  Input for Configuration =   1                                               *
********************************************************************************

  Formula = Si1000                                                      

  Number of irreducible atoms/shells =    1000


  Total number atoms/shells =    1000

  Dimensionality = 3               :  Bulk   



  Cartesian lattice vectors (Angstroms) :

       27.664000    0.000000    0.000000
        0.000000   27.664000    0.000000
        0.000000    0.000000   27.664000

  Cell parameters (Angstroms/Degrees):

  a =      27.6640    alpha =  90.0000
  b =      27.6640    beta  =  90.0000
  c =      27.6640    gamma =  90.0000

  Initial cell volume =       21171.173331 Angs**3

  Temperature of configuration =   300.     K 

  Pressure of configuration =         0.000 GPa 

  Fractional coordinates of asymmetric unit :

--------------------------------------------------------------------------------
   No.  Atomic       x           y          z         Charge      Occupancy
        Label      (Frac)      (Frac)     (Frac)        (e)         (Frac)  
--------------------------------------------------------------------------------
      1 Si    c    0.001614    0.678420    0.243440     0.00000    1.000000    
      2 Si    c    0.527492 *  0.671438 *  0.711661 *   0.00000    1.000000    
      3 Si    c    0.721476 *  0.557188 *  0.580195 *   0.00000    1.000000    
      4 Si    c    0.625389 *  0.312288 *  0.623564 *   0.00000    1.000000    
      5 Si    c    0.465535 *  0.463962 *  0.488369 *   0.00000    1.000000    
      6 Si    c    0.324108 *  0.601639 *  0.030714 *   0.00000    1.000000    
      7 Si    c    0.499690 *  0.864956 *  0.971924 *   0.00000    1.000000    
      8 Si    c    0.893523 *  0.819532 *  0.450129 *   0.00000    1.000000    
      9 Si    c    0.022657 *  0.938731 *  0.217748 *   0.00000    1.000000    
     10 Si    c    0.959427 *  0.001370 *  0.982349 *   0.00000    1.000000    
     11 Si    c    0.946909 *  0.871831 *  0.957368 *   0.00000    1.000000    
     12 Si    c    0.889523 *  0.462395 *  0.462259 *   0.00000    1.000000    
     13 Si    c    0.430829 *  0.587423 *  0.419922 *   0.00000    1.000000    
     14 Si    c    0.320074 *  0.101102 *  0.842101 *   0.00000    1.000000    
     15 Si    c    0.799215 *  0.432619 *  0.828411 *   0.00000    1.000000    
     16 Si    c    0.575658 *  0.782168 *  0.290482 *   0.00000    1.000000    
     17 Si    c    0.803159 *  0.621729 *  0.179786 *   0.00000    1.000000    
     18 Si    c    0.199907 *  0.334670 *  0.948341 *   0.00000    1.000000    
     19 Si    c    0.900703 *  0.374025 *  0.185433 *   0.00000    1.000000    
     20 Si    c    0.309376 *  0.468933 *  0.044718 *   0.00000    1.000000    
     21 Si    c    0.915784 *  0.650326 *  0.060092 *   0.00000    1.000000    
     22 Si    c    0.112110 *  0.852488 *  0.254163 *   0.00000    1.000000    
     23 Si    c    0.176755 *  0.092878 *  0.640628 *   0.00000    1.000000    
     24 Si    c    0.368418 *  0.520059 *  0.865525 *   0.00000    1.000000    
     25 Si    c    0.008838 *  0.533460 *  0.699601 *   0.00000    1.000000    
     26 Si    c    0.988532 *  0.344521 *  0.775002 *   0.00000    1.000000    
     27 Si    c    0.465371 *  0.656140 *  0.132299 *   0.00000    1.000000    
     28 Si    c    0.807264 *  0.688003 *  0.336894 *   0.00000    1.000000    
     29 Si    c    0.644908 *  0.121410 *  0.565302 *   0.00000    1.000000    
     30 Si    c    0.994503 *  0.801177 *  0.193920 *   0.00000    1.000000    
     31 Si    c    0.170476 *  0.787744 *  0.514102 *   0.00000    1.000000    
     32 Si    c    0.601428 *  0.683958 *  0.826649 *   0.00000    1.000000    
     33 Si    c    0.607263 *  0.099271 *  0.125461 *   0.00000    1.000000    
     34 Si    c    0.349901 *  0.600367 *  0.447345 *   0.00000    1.000000    
     35 Si    c    0.295916 *  0.218907 *  0.452193 *   0.00000    1.000000    
     36 Si    c    0.565444 *  0.975617 *  0.134182 *   0.00000    1.000000    
     37 Si    c    0.387965 *  0.240707 *  0.731283 *   0.00000    1.000000    
     38 Si    c    0.250537 *  0.976282 *  0.828650 *   0.00000    1.000000    
     39 Si    c    0.789712 *  0.097033 *  0.657852 *   0.00000    1.000000    
     40 Si    c    0.389707 *  0.014202 *  0.049376 *   0.00000    1.000000    
     41 Si    c    0.389368 *  0.256847 *  0.999932 *   0.00000    1.000000    
     42 Si    c    0.389303 *  0.919064 *  0.316836 *   0.00000    1.000000    
     43 Si    c    0.160804 *  0.025633 *  0.356731 *   0.00000    1.000000    
     44 Si    c    0.315305 *  0.677672 *  0.838258 *   0.00000    1.000000    
     45 Si    c    0.042915 *  0.468182 *  0.952443 *   0.00000    1.000000    
     46 Si    c    0.850042 *  0.393390 *  0.713806 *   0.00000    1.000000    
     47 Si    c    0.518494 *  0.279660 *  0.531093 *   0.00000    1.000000    
     48 Si    c    0.239854 *  0.178403 *  0.926640 *   0.00000    1.000000    
     49 Si    c    0.535503 *  0.734810 *  0.934905 *   0.00000    1.000000    
     50 Si    c    0.354915 *  0.178328 *  0.325854 *   0.00000    1.000000    
     51 Si    c    0.045685 *  0.659863 *  0.031814 *   0.00000    1.000000    
     52 Si    c    0.270304 *  0.088559 *  0.054997 *   0.00000    1.000000    
     53 Si    c    0.885056 *  0.720553 *  0.817858 *   0.00000    1.000000    
     54 Si    c    0.009875 *  0.773393 *  0.484198 *   0.00000    1.000000    
     55 Si    c    0.247767 *  0.793184 *  0.403334 *   0.00000    1.000000    
     56 Si    c    0.166016 *  0.888925 *  0.703745 *   0.00000    1.000000    
     57 Si    c    0.064819 *  0.678903 *  0.113611 *   0.00000    1.000000    
     58 Si    c    0.209887 *  0.423287 *  0.343188 *   0.00000    1.000000    
     59 Si    c    0.973813 *  0.431937 *  0.262431 *   0.00000    1.000000    
     60 Si    c    0.839841 *  0.157551 *  0.015125 *   0.00000    1.000000    
     61 Si    c    0.083986 *  0.112917 *  0.543175 *   0.00000    1.000000    
     62 Si    c    0.679271 *  0.025659 *  0.845838 *   0.00000    1.000000    
     63 Si    c    0.295222 *  0.417578 *  0.340253 *   0.00000    1.000000    
     64 Si    c    0.192492 *  0.005448 *  0.624555 *   0.00000    1.000000    
     65 Si    c    0.739415 *  0.787466 *  0.778473 *   0.00000    1.000000    
     66 Si    c    0.253946 *  0.186003 *  0.132023 *   0.00000    1.000000    
     67 Si    c    0.582572 *  0.476247 *  0.583022 *   0.00000    1.000000    
     68 Si    c    0.885749 *  0.254511 *  0.857793 *   0.00000    1.000000    
     69 Si    c    0.999989 *  0.435761 *  0.886471 *   0.00000    1.000000    
     70 Si    c    0.256483 *  0.114412 *  0.663106 *   0.00000    1.000000    
     71 Si    c    0.373565 *  0.628003 *  0.530397 *   0.00000    1.000000    
     72 Si    c    0.496168 *  0.355332 *  0.638532 *   0.00000    1.000000    
     73 Si    c    0.479059 *  0.758193 *  0.057444 *   0.00000    1.000000    
     74 Si    c    0.885926 *  0.119941 *  0.540871 *   0.00000    1.000000    
     75 Si    c    0.949845 *  0.064026 *  0.563072 *   0.00000    1.000000    
     76 Si    c    0.094467 *  0.386252 *  0.390508 *   0.00000    1.000000    
     77 Si    c    0.095196 *  0.851113 *  0.402492 *   0.00000    1.000000    
     78 Si    c    0.273028 *  0.719880 *  0.441653 *   0.00000    1.000000    
     79 Si    c    0.146057 *  0.611635 *  0.285635 *   0.00000    1.000000    
     80 Si    c    0.857801 *  0.956789 *  0.598100 *   0.00000    1.000000    
     81 Si    c    0.250924 *  0.271759 *  0.325143 *   0.00000    1.000000    
     82 Si    c    0.681713 *  0.142643 *  0.776168 *   0.00000    1.000000    
     83 Si    c    0.390826 *  0.683627 *  0.946307 *   0.00000    1.000000    
     84 Si    c    0.527187 *  0.986623 *  0.212635 *   0.00000    1.000000    
     85 Si    c    0.025455 *  0.795207 *  0.668252 *   0.00000    1.000000    
     86 Si    c    0.199936 *  0.655537 *  0.096873 *   0.00000    1.000000    
     87 Si    c    0.971721 *  0.907032 *  0.715786 *   0.00000    1.000000    
     88 Si    c    0.344492 *  0.540606 *  0.293064 *   0.00000    1.000000    
     89 Si    c    0.918326 *  0.117927 *  0.899928 *   0.00000    1.000000    
     90 Si    c    0.869616 *  0.202733 *  0.574955 *   0.00000    1.000000    
     91 Si    c    0.426170 *  0.161565 *  0.087344 *   0.00000    1.000000    
     92 Si    c    0.011556 *  0.446423 *  0.572839 *   0.00000    1.000000    
     93 Si    c    0.722741 *  0.013118 *  0.562703 *   0.00000    1.000000    
     94 Si    c    0.628604 *  0.348885 *  0.743133 *   0.00000    1.000000    
     95 Si    c    0.815956 *  0.506693 *  0.868572 *   0.00000    1.000000    
     96 Si    c    0.640447 *  0.754527 *  0.857352 *   0.00000    1.000000    
     97 Si    c    0.361771 *  0.716296 *  0.718075 *   0.00000    1.000000    
     98 Si    c    0.468019 *  0.343321 *  0.413645 *   0.00000    1.000000    
     99 Si    c    0.915549 *  0.366471 *  0.556371 *   0.00000    1.000000    
    100 Si    c    0.995233 *  0.220465 *  0.954590 *   0.00000    1.000000    
    101 Si    c    0.818593 *  0.419087 *  0.293341 *   0.00000    1.000000    
    102 Si    c    0.544820 *  0.941580 *  0.867428 *   0.00000    1.000000    
    103 Si    c    0.325398 *  0.536407 *  0.616413 *   0.00000    1.000000    
    104 Si    c    0.686550 *  0.826974 *  0.185156 *   0.00000    1.000000    
    105 Si    c    0.645403 *  0.953983 *  0.151347 *   0.00000    1.000000    
    106 Si    c    0.105999 *  0.925209 *  0.211890 *   0.00000    1.000000    
    107 Si    c    0.345081 *  0.356645 *  0.661462 *   0.00000    1.000000    
    108 Si    c    0.408300 *  0.193159 *  0.801537 *   0.00000    1.000000    
    109 Si    c    0.853041 *  0.047028 *  0.100068 *   0.00000    1.000000    
    110 Si    c    0.880585 *  0.669303 *  0.504134 *   0.00000    1.000000    
    111 Si    c    0.501473 *  0.494399 *  0.705544 *   0.00000    1.000000    
    112 Si    c    0.070674 *  0.567249 *  0.266828 *   0.00000    1.000000    
    113 Si    c    0.399765 *  0.253755 *  0.598978 *   0.00000    1.000000    
    114 Si    c    0.464184 *  0.274773 *  0.036887 *   0.00000    1.000000    
    115 Si    c    0.876474 *  0.888682 *  0.305248 *   0.00000    1.000000    
    116 Si    c    0.614921 *  0.525551 *  0.192704 *   0.00000    1.000000    
    117 Si    c    0.718641 *  0.170448 *  0.941899 *   0.00000    1.000000    
    118 Si    c    0.311431 *  0.092944 *  0.532841 *   0.00000    1.000000    
    119 Si    c    0.680859 *  0.688373 *  0.472911 *   0.00000    1.000000    
    120 Si    c    0.319390 *  0.078621 *  0.617414 *   0.00000    1.000000    
    121 Si    c    0.454659 *  0.216859 *  0.540492 *   0.00000    1.000000    
    122 Si    c    0.664296 *  0.559892 *  0.988076 *   0.00000    1.000000    
    123 Si    c    0.972080 *  0.516591 *  0.163393 *   0.00000    1.000000    
    124 Si    c    0.209516 *  0.698767 *  0.593932 *   0.00000    1.000000    
    125 Si    c    0.527888 *  0.247507 *  0.764929 *   0.00000    1.000000    
    126 Si    c    0.088835 *  0.440713 *  0.752918 *   0.00000    1.000000    
    127 Si    c    0.709606 *  0.225464 *  0.139714 *   0.00000    1.000000    
    128 Si    c    0.401226 *  0.505550 *  0.595075 *   0.00000    1.000000    
    129 Si    c    0.748274 *  0.598239 *  0.239933 *   0.00000    1.000000    
    130 Si    c    0.540232 *  0.799656 *  0.773721 *   0.00000    1.000000    
    131 Si    c    0.181186 *  0.403039 *  0.261498 *   0.00000    1.000000    
    132 Si    c    0.533787 *  0.621682 *  0.225887 *   0.00000    1.000000    
    133 Si    c    0.904434 *  0.902642 *  0.549685 *   0.00000    1.000000    
    134 Si    c    0.613520 *  0.823792 *  0.813391 *   0.00000    1.000000    
    135 Si    c    0.193278 *  0.840842 *  0.276884 *   0.00000    1.000000    
    136 Si    c    0.209758 *  0.769495 *  0.014499 *   0.00000    1.000000    
    137 Si    c    0.342990 *  0.077980 *  0.183543 *   0.00000    1.000000    
    138 Si    c    0.111598 *  0.673198 *  0.976461 *   0.00000    1.000000    
    139 Si    c    0.223272 *  0.542483 *  0.409806 *   0.00000    1.000000    
    140 Si    c    0.469479 *  0.571049 *  0.136287 *   0.00000    1.000000    
    141 Si    c    0.343936 *  0.881456 *  0.936428 *   0.00000    1.000000    
    142 Si    c    0.969865 *  0.017149 *  0.490266 *   0.00000    1.000000    
    143 Si    c    0.330592 *  0.351425 *  0.927407 *   0.00000    1.000000    
    144 Si    c    0.139066 *  0.329353 *  0.251686 *   0.00000    1.000000    
    145 Si    c    0.606240 *  0.850965 *  0.399652 *   0.00000    1.000000    
    146 Si    c    0.780066 *  0.308105 *  0.042015 *   0.00000    1.000000    
    147 Si    c    0.079920 *  0.789328 *  0.198997 *   0.00000    1.000000    
    148 Si    c    0.414658 *  0.978286 *  0.374488 *   0.00000    1.000000    
    149 Si    c    0.496502 *  0.070986 *  0.435254 *   0.00000    1.000000    
    150 Si    c    0.267140 *  0.044302 *  0.286157 *   0.00000    1.000000    
    151 Si    c    0.010261 *  0.433221 *  0.022407 *   0.00000    1.000000    
    152 Si    c    0.999876 *  0.327661 *  0.086894 *   0.00000    1.000000    
    153 Si    c    0.556675 *  0.746790 *  0.176912 *   0.00000    1.000000    
    154 Si    c    0.291958 *  0.929138 *  0.131286 *   0.00000    1.000000    
    155 Si    c    0.501839 *  0.514607 *  0.846818 *   0.00000    1.000000    
    156 Si    c    0.893517 *  0.635388 *  0.697573 *   0.00000    1.000000    
    157 Si    c    0.068296 *  0.900673 *  0.060918 *   0.00000    1.000000    
    158 Si    c    0.315909 *  0.304471 *  0.193481 *   0.00000    1.000000    
    159 Si    c    0.042658 *  0.504379 *  0.451136 *   0.00000    1.000000    
    160 Si    c    0.076940 *  0.244501 *  0.956444 *   0.00000    1.000000    
    161 Si    c    0.152507 *  0.748050 *  0.639868 *   0.00000    1.000000    
    162 Si    c    0.201073 *  0.592493 *  0.669315 *   0.00000    1.000000    
    163 Si    c    0.188573 *  0.035132 *  0.483953 *   0.00000    1.000000    
    164 Si    c    0.985745 *  0.257676 *  0.520027 *   0.00000    1.000000    
    165 Si    c    0.462795 *  0.546285 *  0.350712 *   0.00000    1.000000    
    166 Si    c    0.702226 *  0.850819 *  0.966039 *   0.00000    1.000000    
    167 Si    c    0.205706 *  0.558338 *  0.541490 *   0.00000    1.000000    
    168 Si    c    0.396436 *  0.675128 *  0.650884 *   0.00000    1.000000    
    169 Si    c    0.527121 *  0.661193 *  0.358817 *   0.00000    1.000000    
    170 Si    c    0.956210 *  0.258871 *  0.111581 *   0.00000    1.000000    
    171 Si    c    0.420708 *  0.876126 *  0.098142 *   0.00000    1.000000    
    172 Si    c    0.744707 *  0.555562 *  0.437045 *   0.00000    1.000000    
    173 Si    c    0.261777 *  0.647879 *  0.335032 *   0.00000    1.000000    
    174 Si    c    0.054960 *  0.516546 *  0.772250 *   0.00000    1.000000    
    175 Si    c    0.584177 *  0.341145 *  0.227230 *   0.00000    1.000000    
    176 Si    c    0.098683 *  0.760503 *  0.104948 *   0.00000    1.000000    
    177 Si    c    0.652961 *  0.489657 *  0.313918 *   0.00000    1.000000    
    178 Si    c    0.932027 *  0.847107 *  0.813966 *   0.00000    1.000000    
    179 Si    c    0.413309 *  0.656101 *  0.287941 *   0.00000    1.000000    
    180 Si    c    0.921702 *  0.648556 *  0.143995 *   0.00000    1.000000    
    181 Si    c    0.294850 *  0.917203 *  0.680118 *   0.00000    1.000000    
    182 Si    c    0.817357 *  0.759478 *  0.675357 *   0.00000    1.000000    
    183 Si    c    0.553961 *  0.782262 *  0.100567 *   0.00000    1.000000    
    184 Si    c    0.760359 *  0.969011 *  0.111092 *   0.00000    1.000000    
    185 Si    c    0.906113 *  0.054640 *  0.699896 *   0.00000    1.000000    
    186 Si    c    0.789506 *  0.299235 *  0.227269 *   0.00000    1.000000    
    187 Si    c    0.029332 *  0.847937 *  0.945255 *   0.00000    1.000000    
    188 Si    c    0.450252 *  0.667798 *  0.820231 *   0.00000    1.000000    
    189 Si    c    0.630352 *  0.815285 *  0.993501 *   0.00000    1.000000    
    190 Si    c    0.542195 *  0.194813 *  0.210959 *   0.00000    1.000000    
    191 Si    c    0.506913 *  0.927578 *  0.452261 *   0.00000    1.000000    
    192 Si    c    0.393739 *  0.110087 *  0.793645 *   0.00000    1.000000    
    193 Si    c    0.928410 *  0.911648 *  0.876185 *   0.00000    1.000000    
    194 Si    c    0.778612 *  0.035947 *  0.061343 *   0.00000    1.000000    
    195 Si    c    0.369539 *  0.123258 *  0.966810 *   0.00000    1.000000    
    196 Si    c    0.650857 *  0.896261 *  0.632720 *   0.00000    1.000000    
    197 Si    c    0.767639 *  0.743554 *  0.610260 *   0.00000    1.000000    
    198 Si    c    0.590473 *  0.921213 *  0.447707 *   0.00000    1.000000    
    199 Si    c    0.121256 *  0.975875 *  0.587929 *   0.00000    1.000000    
    200 Si    c    0.043954 *  0.646007 *  0.366285 *   0.00000    1.000000    
    201 Si    c    0.131045 *  0.581524 *  0.951405 *   0.00000    1.000000    
    202 Si    c    0.580869 *  0.212740 *  0.703771 *   0.00000    1.000000    
    203 Si    c    0.788791 *  0.733668 *  0.408157 *   0.00000    1.000000    
    204 Si    c    0.126270 *  0.904972 *  0.128192 *   0.00000    1.000000    
    205 Si    c    0.661526 *  0.207503 *  0.449002 *   0.00000    1.000000    
    206 Si    c    0.326212 *  0.384770 *  0.066891 *   0.00000    1.000000    
    207 Si    c    0.972945 *  0.202326 *  0.792213 *   0.00000    1.000000    
    208 Si    c    0.939276 *  0.277679 *  0.668821 *   0.00000    1.000000    
    209 Si    c    0.983197 *  0.191144 *  0.468233 *   0.00000    1.000000    
    210 Si    c    0.469370 *  0.324777 *  0.909388 *   0.00000    1.000000    
    211 Si    c    0.164181 *  0.334851 *  0.809854 *   0.00000    1.000000    
    212 Si    c    0.895204 *  0.802711 *  0.967411 *   0.00000    1.000000    
    213 Si    c    0.003775 *  0.647683 *  0.166222 *   0.00000    1.000000    
    214 Si    c    0.834438 *  0.601744 *  0.756194 *   0.00000    1.000000    
    215 Si    c    0.476243 *  0.941436 *  0.655105 *   0.00000    1.000000    
    216 Si    c    0.508513 *  0.552563 *  0.768388 *   0.00000    1.000000    
    217 Si    c    0.939526 *  0.573352 *  0.032214 *   0.00000    1.000000    
    218 Si    c    0.173970 *  0.117580 *  0.948555 *   0.00000    1.000000    
    219 Si    c    0.139137 *  0.672809 *  0.227050 *   0.00000    1.000000    
    220 Si    c    0.741019 *  0.376056 *  0.865833 *   0.00000    1.000000    
    221 Si    c    0.354100 *  0.805372 *  0.977550 *   0.00000    1.000000    
    222 Si    c    0.409871 *  0.936266 *  0.917765 *   0.00000    1.000000    
    223 Si    c    0.556394 *  0.000280 *  0.347886 *   0.00000    1.000000    
    224 Si    c    0.350249 *  0.323751 *  0.582364 *   0.00000    1.000000    
    225 Si    c    0.627739 *  0.139241 *  0.709805 *   0.00000    1.000000    
    226 Si    c    0.601063 *  0.414485 *  0.474759 *   0.00000    1.000000    
    227 Si    c    0.917754 *  0.517951 *  0.093030 *   0.00000    1.000000    
    228 Si    c    0.220881 *  0.212571 *  0.003174 *   0.00000    1.000000    
    229 Si    c    0.494834 *  0.428124 *  0.824096 *   0.00000    1.000000    
    230 Si    c    0.964137 *  0.731471 *  0.779452 *   0.00000    1.000000    
    231 Si    c    0.277767 *  0.203576 *  0.369395 *   0.00000    1.000000    
    232 Si    c    0.810026 *  0.714898 *  0.489815 *   0.00000    1.000000    
    233 Si    c    0.155175 *  0.439729 *  0.081930 *   0.00000    1.000000    
    234 Si    c    0.029950 *  0.676238 *  0.766527 *   0.00000    1.000000    
    235 Si    c    0.770770 *  0.584668 *  0.511920 *   0.00000    1.000000    
    236 Si    c    0.063064 *  0.980208 *  0.652849 *   0.00000    1.000000    
    237 Si    c    0.618202 *  0.901078 *  0.853894 *   0.00000    1.000000    
    238 Si    c    0.722740 *  0.863990 *  0.049027 *   0.00000    1.000000    
    239 Si    c    0.515541 *  0.223144 *  0.416102 *   0.00000    1.000000    
    240 Si    c    0.802243 *  0.911035 *  0.646578 *   0.00000    1.000000    
    241 Si    c    0.533350 *  0.358031 *  0.858094 *   0.00000    1.000000    
    242 Si    c    0.704497 *  0.277973 *  0.205981 *   0.00000    1.000000    
    243 Si    c    0.187968 *  0.675807 *  0.852410 *   0.00000    1.000000    
    244 Si    c    0.895029 *  0.099859 *  0.046212 *   0.00000    1.000000    
    245 Si    c    0.434204 *  0.465122 *  0.350660 *   0.00000    1.000000    
    246 Si    c    0.252770 *  0.904911 *  0.273055 *   0.00000    1.000000    
    247 Si    c    0.683797 *  0.193897 *  0.260819 *   0.00000    1.000000    
    248 Si    c    0.439270 *  0.137157 *  0.574768 *   0.00000    1.000000    
    249 Si    c    0.811131 *  0.354507 *  0.421538 *   0.00000    1.000000    
    250 Si    c    0.026224 *  0.696991 *  0.572660 *   0.00000    1.000000    
    251 Si    c    0.593876 *  0.511377 *  0.960928 *   0.00000    1.000000    
    252 Si    c    0.109286 *  0.042025 *  0.136923 *   0.00000    1.000000    
    253 Si    c    0.181644 *  0.472018 *  0.006359 *   0.00000    1.000000    
    254 Si    c    0.206919 *  0.849670 *  0.770821 *   0.00000    1.000000    
    255 Si    c    0.430667 *  0.247100 *  0.923563 *   0.00000    1.000000    
    256 Si    c    0.032406 *  0.571687 *  0.187961 *   0.00000    1.000000    
    257 Si    c    0.876973 *  0.019273 *  0.301878 *   0.00000    1.000000    
    258 Si    c    0.882562 *  0.185227 *  0.282139 *   0.00000    1.000000    
    259 Si    c    0.831583 *  0.527986 *  0.112151 *   0.00000    1.000000    
    260 Si    c    0.829638 *  0.648836 *  0.048917 *   0.00000    1.000000    
    261 Si    c    0.764409 *  0.722194 *  0.731696 *   0.00000    1.000000    
    262 Si    c    0.915484 *  0.599874 *  0.885782 *   0.00000    1.000000    
    263 Si    c    0.894976 *  0.057467 *  0.972445 *   0.00000    1.000000    
    264 Si    c    0.717625 *  0.607123 *  0.869388 *   0.00000    1.000000    
    265 Si    c    0.461997 *  0.673640 *  0.051834 *   0.00000    1.000000    
    266 Si    c    0.630907 *  0.768391 *  0.223680 *   0.00000    1.000000    
    267 Si    c    0.273429 *  0.967929 *  0.393068 *   0.00000    1.000000    
    268 Si    c    0.335079 *  0.905817 *  0.755776 *   0.00000    1.000000    
    269 Si    c    0.249140 *  0.722225 *  0.295592 *   0.00000    1.000000    
    270 Si    c    0.197282 *  0.779117 *  0.337463 *   0.00000    1.000000    
    271 Si    c    0.594650 *  0.135823 *  0.341998 *   0.00000    1.000000    
    272 Si    c    0.177297 *  0.395067 *  0.423036 *   0.00000    1.000000    
    273 Si    c    0.775814 *  0.426401 *  0.744633 *   0.00000    1.000000    
    274 Si    c    0.574616 *  0.776309 *  0.423914 *   0.00000    1.000000    
    275 Si    c    0.996585 *  0.350668 *  0.003062 *   0.00000    1.000000    
    276 Si    c    0.799096 *  0.134706 *  0.204843 *   0.00000    1.000000    
    277 Si    c    0.642053 *  0.271366 *  0.696832 *   0.00000    1.000000    
    278 Si    c    0.167378 *  0.617495 *  0.793278 *   0.00000    1.000000    
    279 Si    c    0.321979 *  0.829154 *  0.382946 *   0.00000    1.000000    
    280 Si    c    0.729912 *  0.897086 *  0.592220 *   0.00000    1.000000    
    281 Si    c    0.346058 *  0.349414 *  0.259864 *   0.00000    1.000000    
    282 Si    c    0.973777 *  0.027230 *  0.796178 *   0.00000    1.000000    
    283 Si    c    0.070357 *  0.181938 *  0.156583 *   0.00000    1.000000    
    284 Si    c    0.755195 *  0.037943 *  0.945409 *   0.00000    1.000000    
    285 Si    c    0.077972 *  0.222437 *  0.626084 *   0.00000    1.000000    
    286 Si    c    0.818134 *  0.269221 *  0.539297 *   0.00000    1.000000    
    287 Si    c    0.559314 *  0.456892 *  0.412747 *   0.00000    1.000000    
    288 Si    c    0.146410 *  0.533941 *  0.879580 *   0.00000    1.000000    
    289 Si    c    0.033153 *  0.358437 *  0.857706 *   0.00000    1.000000    
    290 Si    c    0.777447 *  0.916691 *  0.781823 *   0.00000    1.000000    
    291 Si    c    0.378274 *  0.407623 *  0.782721 *   0.00000    1.000000    
    292 Si    c    0.140289 *  0.161441 *  0.593949 *   0.00000    1.000000    
    293 Si    c    0.095267 *  0.739084 *  0.776631 *   0.00000    1.000000    
    294 Si    c    0.846926 *  0.929268 *  0.989569 *   0.00000    1.000000    
    295 Si    c    0.747438 *  0.035752 *  0.705273 *   0.00000    1.000000    
    296 Si    c    0.995608 *  0.503596 *  0.833169 *   0.00000    1.000000    
    297 Si    c    0.643464 *  0.641003 *  0.766778 *   0.00000    1.000000    
    298 Si    c    0.521997 *  0.539141 *  0.007809 *   0.00000    1.000000    
    299 Si    c    0.023683 *  0.264758 *  0.845084 *   0.00000    1.000000    
    300 Si    c    0.163903 *  0.978439 *  0.017471 *   0.00000    1.000000    
    301 Si    c    0.694161 *  0.914483 *  0.301818 *   0.00000    1.000000    
    302 Si    c    0.532609 *  0.529710 *  0.091542 *   0.00000    1.000000    
    303 Si    c    0.257142 *  0.397223 *  0.927019 *   0.00000    1.000000    
    304 Si    c    0.628164 *  0.152547 *  0.062226 *   0.00000    1.000000    
    305 Si    c    0.721976 *  0.252423 *  0.826283 *   0.00000    1.000000    
    306 Si    c    0.603809 *  0.863000 *  0.567501 *   0.00000    1.000000    
    307 Si    c    0.141904 *  0.357276 *  0.068968 *   0.00000    1.000000    
    308 Si    c    0.057929 *  0.728295 *  0.338462 *   0.00000    1.000000    
    309 Si    c    0.345325 *  0.032971 *  0.257710 *   0.00000    1.000000    
    310 Si    c    0.898381 *  0.039128 *  0.220421 *   0.00000    1.000000    
    311 Si    c    0.725916 *  0.614698 *  0.659285 *   0.00000    1.000000    
    312 Si    c    0.034427 *  0.108621 *  0.000226 *   0.00000    1.000000    
    313 Si    c    0.103775 *  0.393123 *  0.822442 *   0.00000    1.000000    
    314 Si    c    0.861698 *  0.803032 *  0.829234 *   0.00000    1.000000    
    315 Si    c    0.046868 *  0.062547 *  0.670699 *   0.00000    1.000000    
    316 Si    c    0.539040 *  0.997750 *  0.637381 *   0.00000    1.000000    
    317 Si    c    0.475372 *  0.775607 *  0.195738 *   0.00000    1.000000    
    318 Si    c    0.927928 *  0.681358 *  0.432941 *   0.00000    1.000000    
    319 Si    c    0.889854 *  0.664755 *  0.355939 *   0.00000    1.000000    
    320 Si    c    0.151916 *  0.900130 *  0.448627 *   0.00000    1.000000    
    321 Si    c    0.281759 *  0.883539 *  0.497127 *   0.00000    1.000000    
    322 Si    c    0.447490 *  0.633977 *  0.901228 *   0.00000    1.000000    
    323 Si    c    0.072170 *  0.341095 *  0.200828 *   0.00000    1.000000    
    324 Si    c    0.733371 *  0.471404 *  0.447307 *   0.00000    1.000000    
    325 Si    c    0.357265 *  0.032665 *  0.720415 *   0.00000    1.000000    
    326 Si    c    0.848550 *  0.811296 *  0.325609 *   0.00000    1.000000    
    327 Si    c    0.307321 *  0.959676 *  0.467712 *   0.00000    1.000000    
    328 Si    c    0.847123 *  0.220866 *  0.418563 *   0.00000    1.000000    
    329 Si    c    0.530131 *  0.313905 *  0.164114 *   0.00000    1.000000    
    330 Si    c    0.776974 *  0.803921 *  0.281443 *   0.00000    1.000000    
    331 Si    c    0.856910 *  0.586680 *  0.506033 *   0.00000    1.000000    
    332 Si    c    0.131043 *  0.183177 *  0.450232 *   0.00000    1.000000    
    333 Si    c    0.814754 *  0.678856 *  0.786885 *   0.00000    1.000000    
    334 Si    c    0.026197 *  0.135549 *  0.788883 *   0.00000    1.000000    
    335 Si    c    0.396520 *  0.087059 *  0.517937 *   0.00000    1.000000    
    336 Si    c    0.950930 *  0.762086 *  0.424959 *   0.00000    1.000000    
    337 Si    c    0.704256 *  0.735905 *  0.405788 *   0.00000    1.000000    
    338 Si    c    0.898686 *  0.175328 *  0.831513 *   0.00000    1.000000    
    339 Si    c    0.720474 *  0.161550 *  0.402376 *   0.00000    1.000000    
    340 Si    c    0.685715 *  0.709933 *  0.257607 *   0.00000    1.000000    
    341 Si    c    0.314353 *  0.474137 *  0.491372 *   0.00000    1.000000    
    342 Si    c    0.410004 *  0.399286 *  0.071323 *   0.00000    1.000000    
    343 Si    c    0.674169 *  0.695650 *  0.976654 *   0.00000    1.000000    
    344 Si    c    0.974185 *  0.548869 *  0.561495 *   0.00000    1.000000    
    345 Si    c    0.122653 *  0.937029 *  0.862228 *   0.00000    1.000000    
    346 Si    c    0.359041 *  0.796667 *  0.693128 *   0.00000    1.000000    
    347 Si    c    0.867857 *  0.388486 *  0.031525 *   0.00000    1.000000    
    348 Si    c    0.488245 *  0.182924 *  0.909546 *   0.00000    1.000000    
    349 Si    c    0.930723 *  0.315162 *  0.489924 *   0.00000    1.000000    
    350 Si    c    0.946860 *  0.349418 *  0.251537 *   0.00000    1.000000    
    351 Si    c    0.659322 *  0.041880 *  0.267389 *   0.00000    1.000000    
    352 Si    c    0.970575 *  0.820582 *  0.113758 *   0.00000    1.000000    
    353 Si    c    0.283186 *  0.010542 *  0.951473 *   0.00000    1.000000    
    354 Si    c    0.467414 *  0.092853 *  0.297569 *   0.00000    1.000000    
    355 Si    c    0.713443 *  0.317523 *  0.927904 *   0.00000    1.000000    
    356 Si    c    0.576130 *  0.541124 *  0.878831 *   0.00000    1.000000    
    357 Si    c    0.709356 *  0.449026 *  0.368229 *   0.00000    1.000000    
    358 Si    c    0.654199 *  0.482858 *  0.696820 *   0.00000    1.000000    
    359 Si    c    0.578420 *  0.883863 *  0.998616 *   0.00000    1.000000    
    360 Si    c    0.941434 *  0.909001 *  0.354446 *   0.00000    1.000000    
    361 Si    c    0.549179 *  0.153155 *  0.028909 *   0.00000    1.000000    
    362 Si    c    0.446579 *  0.107436 *  0.929193 *   0.00000    1.000000    
    363 Si    c    0.367268 *  0.736108 *  0.095008 *   0.00000    1.000000    
    364 Si    c    0.942980 *  0.887282 *  0.435040 *   0.00000    1.000000    
    365 Si    c    0.581660 *  0.034328 *  0.077820 *   0.00000    1.000000    
    366 Si    c    0.688662 *  0.027580 *  0.642735 *   0.00000    1.000000    
    367 Si    c    0.244840 *  0.241238 *  0.864665 *   0.00000    1.000000    
    368 Si    c    0.233960 *  0.566651 *  0.786747 *   0.00000    1.000000    
    369 Si    c    0.284785 *  0.927813 *  0.976144 *   0.00000    1.000000    
    370 Si    c    0.559212 *  0.726585 *  0.655754 *   0.00000    1.000000    
    371 Si    c    0.389635 *  0.992777 *  0.855539 *   0.00000    1.000000    
    372 Si    c    0.974639 *  0.132710 *  0.058032 *   0.00000    1.000000    
    373 Si    c    0.832942 *  0.200007 *  0.653138 *   0.00000    1.000000    
    374 Si    c    0.516345 *  0.455800 *  0.130743 *   0.00000    1.000000    
    375 Si    c    0.611403 *  0.559557 *  0.112550 *   0.00000    1.000000    
    376 Si    c    0.222742 *  0.523073 *  0.714978 *   0.00000    1.000000    
    377 Si    c    0.942964 *  0.740605 *  0.233624 *   0.00000    1.000000    
    378 Si    c    0.323685 *  0.298176 *  0.723670 *   0.00000    1.000000    
    379 Si    c    0.138528 *  0.262140 *  0.489644 *   0.00000    1.000000    
    380 Si    c    0.974517 *  0.465614 *  0.341918 *   0.00000    1.000000    
    381 Si    c    0.893444 *  0.720762 *  0.666392 *   0.00000    1.000000    
    382 Si    c    0.457420 *  0.803006 *  0.344271 *   0.00000    1.000000    
    383 Si    c    0.469502 *  0.859613 *  0.745003 *   0.00000    1.000000    
    384 Si    c    0.861994 *  0.379981 *  0.356655 *   0.00000    1.000000    
    385 Si    c    0.621683 *  0.441461 *  0.767475 *   0.00000    1.000000    
    386 Si    c    0.513212 *  0.747796 *  0.586623 *   0.00000    1.000000    
    387 Si    c    0.210419 *  0.716303 *  0.220732 *   0.00000    1.000000    
    388 Si    c    0.973832 *  0.707437 *  0.023916 *   0.00000    1.000000    
    389 Si    c    0.149912 *  0.643437 *  0.715184 *   0.00000    1.000000    
    390 Si    c    0.025340 *  0.379312 *  0.630664 *   0.00000    1.000000    
    391 Si    c    0.399845 *  0.803261 *  0.054642 *   0.00000    1.000000    
    392 Si    c    0.046898 *  0.638289 *  0.844233 *   0.00000    1.000000    
    393 Si    c    0.139546 *  0.990880 *  0.265620 *   0.00000    1.000000    
    394 Si    c    0.960463 *  0.769861 *  0.555635 *   0.00000    1.000000    
    395 Si    c    0.269302 *  0.021030 *  0.513492 *   0.00000    1.000000    
    396 Si    c    0.163821 *  0.980894 *  0.107140 *   0.00000    1.000000    
    397 Si    c    0.194802 *  0.123643 *  0.466513 *   0.00000    1.000000    
    398 Si    c    0.204028 *  0.552163 *  0.266609 *   0.00000    1.000000    
    399 Si    c    0.225997 *  0.008748 *  0.753104 *   0.00000    1.000000    
    400 Si    c    0.979012 *  0.626072 *  0.606600 *   0.00000    1.000000    
    401 Si    c    0.320167 *  0.663829 *  0.396350 *   0.00000    1.000000    
    402 Si    c    0.288554 *  0.050100 *  0.369556 *   0.00000    1.000000    
    403 Si    c    0.056168 *  0.143282 *  0.464695 *   0.00000    1.000000    
    404 Si    c    0.201552 *  0.120513 *  0.146349 *   0.00000    1.000000    
    405 Si    c    0.265062 *  0.297564 *  0.460745 *   0.00000    1.000000    
    406 Si    c    0.035161 *  0.271922 *  0.313975 *   0.00000    1.000000    
    407 Si    c    0.074086 *  0.309017 *  0.599470 *   0.00000    1.000000    
    408 Si    c    0.894880 *  0.089090 *  0.379871 *   0.00000    1.000000    
    409 Si    c    0.691824 *  0.966180 *  0.369973 *   0.00000    1.000000    
    410 Si    c    0.668772 *  0.099139 *  0.377420 *   0.00000    1.000000    
    411 Si    c    0.271090 *  0.198488 *  0.649358 *   0.00000    1.000000    
    412 Si    c    0.660895 *  0.624915 *  0.931879 *   0.00000    1.000000    
    413 Si    c    0.424554 *  0.391745 *  0.672814 *   0.00000    1.000000    
    414 Si    c    0.200955 *  0.902764 *  0.000585 *   0.00000    1.000000    
    415 Si    c    0.487022 *  0.748026 *  0.864769 *   0.00000    1.000000    
    416 Si    c    0.101734 *  0.565439 *  0.458416 *   0.00000    1.000000    
    417 Si    c    0.443433 *  0.511538 *  0.982653 *   0.00000    1.000000    
    418 Si    c    0.797048 *  0.987013 *  0.395863 *   0.00000    1.000000    
    419 Si    c    0.842620 *  0.006974 *  0.468393 *   0.00000    1.000000    
    420 Si    c    0.392467 *  0.957920 *  0.460498 *   0.00000    1.000000    
    421 Si    c    0.236369 *  0.378695 *  0.790559 *   0.00000    1.000000    
    422 Si    c    0.018580 *  0.447881 *  0.149698 *   0.00000    1.000000    
    423 Si    c    0.276176 *  0.356657 *  0.136131 *   0.00000    1.000000    
    424 Si    c    0.705914 *  0.832736 *  0.318761 *   0.00000    1.000000    
    425 Si    c    0.743505 *  0.308548 *  0.388902 *   0.00000    1.000000    
    426 Si    c    0.807885 *  0.869304 *  0.038741 *   0.00000    1.000000    
    427 Si    c    0.619017 *  0.751506 *  0.939265 *   0.00000    1.000000    
    428 Si    c    0.457158 *  0.667804 *  0.407007 *   0.00000    1.000000    
    429 Si    c    0.117836 *  0.908889 *  0.529998 *   0.00000    1.000000    
    430 Si    c    0.207364 *  0.471827 *  0.144076 *   0.00000    1.000000    
    431 Si    c    0.262645 *  0.469155 *  0.973570 *   0.00000    1.000000    
    432 Si    c    0.886382 *  0.817620 *  0.535240 *   0.00000    1.000000    
    433 Si    c    0.820003 *  0.813349 *  0.406845 *   0.00000    1.000000    
    434 Si    c    0.127301 *  0.140040 *  0.875870 *   0.00000    1.000000    
    435 Si    c    0.023762 *  0.823808 *  0.587635 *   0.00000    1.000000    
    436 Si    c    0.763789 *  0.932504 *  0.253435 *   0.00000    1.000000    
    437 Si    c    0.306241 *  0.904605 *  0.342444 *   0.00000    1.000000    
    438 Si    c    0.567912 *  0.861676 *  0.321161 *   0.00000    1.000000    
    439 Si    c    0.468462 *  0.913178 *  0.037375 *   0.00000    1.000000    
    440 Si    c    0.760183 *  0.488511 *  0.616842 *   0.00000    1.000000    
    441 Si    c    0.156300 *  0.330783 *  0.605704 *   0.00000    1.000000    
    442 Si    c    0.616196 *  0.909152 *  0.269318 *   0.00000    1.000000    
    443 Si    c    0.621282 *  0.568732 *  0.319532 *   0.00000    1.000000    
    444 Si    c    0.365021 *  0.181003 *  0.029818 *   0.00000    1.000000    
    445 Si    c    0.551272 *  0.539963 *  0.437895 *   0.00000    1.000000    
    446 Si    c    0.392949 *  0.333505 *  0.455327 *   0.00000    1.000000    
    447 Si    c    0.160337 *  0.822231 *  0.135439 *   0.00000    1.000000    
    448 Si    c    0.175884 *  0.257175 *  0.219320 *   0.00000    1.000000    
    449 Si    c    0.895282 *  0.684674 *  0.895297 *   0.00000    1.000000    
    450 Si    c    0.234869 *  0.987719 *  0.156922 *   0.00000    1.000000    
    451 Si    c    0.339546 *  0.992934 *  0.643414 *   0.00000    1.000000    
    452 Si    c    0.991940 *  0.964317 *  0.144195 *   0.00000    1.000000    
    453 Si    c    0.704953 *  0.333079 *  0.010770 *   0.00000    1.000000    
    454 Si    c    0.075198 *  0.828846 *  0.015003 *   0.00000    1.000000    
    455 Si    c    0.215093 *  0.391793 *  0.708802 *   0.00000    1.000000    
    456 Si    c    0.021539 *  0.774096 *  0.062075 *   0.00000    1.000000    
    457 Si    c    0.634361 *  0.429830 *  0.631940 *   0.00000    1.000000    
    458 Si    c    0.403526 *  0.879651 *  0.497126 *   0.00000    1.000000    
    459 Si    c    0.160629 *  0.549988 *  0.023982 *   0.00000    1.000000    
    460 Si    c    0.797368 *  0.151873 *  0.445439 *   0.00000    1.000000    
    461 Si    c    0.732798 *  0.202486 *  0.560422 *   0.00000    1.000000    
    462 Si    c    0.710680 *  0.468195 *  0.075341 *   0.00000    1.000000    
    463 Si    c    0.164288 *  0.414951 *  0.578513 *   0.00000    1.000000    
    464 Si    c    0.182683 *  0.001293 *  0.875874 *   0.00000    1.000000    
    465 Si    c    0.475253 *  0.547453 *  0.479942 *   0.00000    1.000000    
    466 Si    c    0.835764 *  0.822554 *  0.907950 *   0.00000    1.000000    
    467 Si    c    0.616177 *  0.337658 *  0.438666 *   0.00000    1.000000    
    468 Si    c    0.887315 *  0.723708 *  0.169970 *   0.00000    1.000000    
    469 Si    c    0.793464 *  0.090420 *  0.824301 *   0.00000    1.000000    
    470 Si    c    0.279810 *  0.593141 *  0.271842 *   0.00000    1.000000    
    471 Si    c    0.192137 *  0.249115 *  0.135409 *   0.00000    1.000000    
    472 Si    c    0.919375 *  0.417789 *  0.908230 *   0.00000    1.000000    
    473 Si    c    0.825421 *  0.057076 *  0.181836 *   0.00000    1.000000    
    474 Si    c    0.799738 *  0.414306 *  0.552418 *   0.00000    1.000000    
    475 Si    c    0.997333 *  0.793675 *  0.827928 *   0.00000    1.000000    
    476 Si    c    0.410825 *  0.764542 *  0.925474 *   0.00000    1.000000    
    477 Si    c    0.568813 *  0.083545 *  0.734345 *   0.00000    1.000000    
    478 Si    c    0.280194 *  0.413610 *  0.658256 *   0.00000    1.000000    
    479 Si    c    0.818509 *  0.440593 *  0.988035 *   0.00000    1.000000    
    480 Si    c    0.426895 *  0.055552 *  0.168004 *   0.00000    1.000000    
    481 Si    c    0.441376 *  0.175627 *  0.299784 *   0.00000    1.000000    
    482 Si    c    0.804131 *  0.707148 *  0.184457 *   0.00000    1.000000    
    483 Si    c    0.521694 *  0.833254 *  0.568840 *   0.00000    1.000000    
    484 Si    c    0.231627 *  0.521800 *  0.858098 *   0.00000    1.000000    
    485 Si    c    0.650308 *  0.686710 *  0.060226 *   0.00000    1.000000    
    486 Si    c    0.689788 *  0.556691 *  0.075210 *   0.00000    1.000000    
    487 Si    c    0.897627 *  0.895185 *  0.221665 *   0.00000    1.000000    
    488 Si    c    0.701658 *  0.800019 *  0.105934 *   0.00000    1.000000    
    489 Si    c    0.585901 *  0.175921 *  0.420845 *   0.00000    1.000000    
    490 Si    c    0.335147 *  0.623681 *  0.611063 *   0.00000    1.000000    
    491 Si    c    0.438677 *  0.573004 *  0.554377 *   0.00000    1.000000    
    492 Si    c    0.427643 *  0.737165 *  0.597739 *   0.00000    1.000000    
    493 Si    c    0.982653 *  0.562730 *  0.474570 *   0.00000    1.000000    
    494 Si    c    0.112709 *  0.832177 *  0.565574 *   0.00000    1.000000    
    495 Si    c    0.687898 *  0.939165 *  0.078539 *   0.00000    1.000000    
    496 Si    c    0.642138 *  0.822689 *  0.674777 *   0.00000    1.000000    
    497 Si    c    0.003590 *  0.609182 *  0.299622 *   0.00000    1.000000    
    498 Si    c    0.847580 *  0.907261 *  0.906648 *   0.00000    1.000000    
    499 Si    c    0.729712 *  0.977885 *  0.892798 *   0.00000    1.000000    
    500 Si    c    0.887956 *  0.552963 *  0.577797 *   0.00000    1.000000    
    501 Si    c    0.675044 *  0.478548 *  0.231791 *   0.00000    1.000000    
    502 Si    c    0.232614 *  0.806384 *  0.087266 *   0.00000    1.000000    
    503 Si    c    0.636903 *  0.515985 *  0.821239 *   0.00000    1.000000    
    504 Si    c    0.058254 *  0.694904 *  0.488764 *   0.00000    1.000000    
    505 Si    c    0.808615 *  0.007220 *  0.548594 *   0.00000    1.000000    
    506 Si    c    0.649964 *  0.201028 *  0.535569 *   0.00000    1.000000    
    507 Si    c    0.578465 *  0.373614 *  0.670624 *   0.00000    1.000000    
    508 Si    c    0.793847 *  0.247366 *  0.355814 *   0.00000    1.000000    
    509 Si    c    0.449641 *  0.329034 *  0.099504 *   0.00000    1.000000    
    510 Si    c    0.498377 *  0.002720 *  0.492549 *   0.00000    1.000000    
    511 Si    c    0.106382 *  0.562764 *  0.150570 *   0.00000    1.000000    
    512 Si    c    0.074341 *  0.598184 *  0.604562 *   0.00000    1.000000    
    513 Si    c    0.315903 *  0.293068 *  0.864006 *   0.00000    1.000000    
    514 Si    c    0.274269 *  0.606112 *  0.957520 *   0.00000    1.000000    
    515 Si    c    0.644934 *  0.962670 *  0.800862 *   0.00000    1.000000    
    516 Si    c    0.458387 *  0.207142 *  0.222181 *   0.00000    1.000000    
    517 Si    c    0.471834 *  0.858210 *  0.168249 *   0.00000    1.000000    
    518 Si    c    0.249610 *  0.728436 *  0.828150 *   0.00000    1.000000    
    519 Si    c    0.047551 *  0.364835 *  0.459748 *   0.00000    1.000000    
    520 Si    c    0.358838 *  0.204994 *  0.656286 *   0.00000    1.000000    
    521 Si    c    0.673606 *  0.917523 *  0.918896 *   0.00000    1.000000    
    522 Si    c    0.809337 *  0.067209 *  0.338490 *   0.00000    1.000000    
    523 Si    c    0.139983 *  0.199163 *  0.365629 *   0.00000    1.000000    
    524 Si    c    0.100797 *  0.574217 *  0.819657 *   0.00000    1.000000    
    525 Si    c    0.149532 *  0.439508 *  0.495706 *   0.00000    1.000000    
    526 Si    c    0.587158 *  0.625752 *  0.889618 *   0.00000    1.000000    
    527 Si    c    0.081832 *  0.961746 *  0.001138 *   0.00000    1.000000    
    528 Si    c    0.464186 *  0.945895 *  0.742384 *   0.00000    1.000000    
    529 Si    c    0.750100 *  0.666378 *  0.522264 *   0.00000    1.000000    
    530 Si    c    0.157736 *  0.828362 *  0.979053 *   0.00000    1.000000    
    531 Si    c    0.165942 *  0.122195 *  0.223338 *   0.00000    1.000000    
    532 Si    c    0.535073 *  0.299731 *  0.448370 *   0.00000    1.000000    
    533 Si    c    0.250199 *  0.252704 *  0.712899 *   0.00000    1.000000    
    534 Si    c    0.234732 *  0.122410 *  0.272734 *   0.00000    1.000000    
    535 Si    c    0.175266 *  0.287343 *  0.879257 *   0.00000    1.000000    
    536 Si    c    0.516528 *  0.128901 *  0.609245 *   0.00000    1.000000    
    537 Si    c    0.117338 *  0.131336 *  0.017562 *   0.00000    1.000000    
    538 Si    c    0.861255 *  0.245628 *  0.117853 *   0.00000    1.000000    
    539 Si    c    0.682366 *  0.766161 *  0.618735 *   0.00000    1.000000    
    540 Si    c    0.736474 *  0.834915 *  0.527165 *   0.00000    1.000000    
    541 Si    c    0.861989 *  0.132856 *  0.704105 *   0.00000    1.000000    
    542 Si    c    0.044702 *  0.861212 *  0.723199 *   0.00000    1.000000    
    543 Si    c    0.469079 *  0.829241 *  0.837675 *   0.00000    1.000000    
    544 Si    c    0.483524 *  0.852592 *  0.489886 *   0.00000    1.000000    
    545 Si    c    0.092375 *  0.931551 *  0.718571 *   0.00000    1.000000    
    546 Si    c    0.108649 *  0.058184 *  0.222667 *   0.00000    1.000000    
    547 Si    c    0.884812 *  0.419387 *  0.829688 *   0.00000    1.000000    
    548 Si    c    0.283350 *  0.684821 *  0.722828 *   0.00000    1.000000    
    549 Si    c    0.389955 *  0.695673 *  0.360667 *   0.00000    1.000000    
    550 Si    c    0.166814 *  0.806077 *  0.893947 *   0.00000    1.000000    
    551 Si    c    0.119577 *  0.463750 *  0.252146 *   0.00000    1.000000    
    552 Si    c    0.859666 *  0.092465 *  0.459707 *   0.00000    1.000000    
    553 Si    c    0.633896 *  0.227173 *  0.100432 *   0.00000    1.000000    
    554 Si    c    0.677306 *  0.114221 *  0.643976 *   0.00000    1.000000    
    555 Si    c    0.634938 *  0.061550 *  0.914834 *   0.00000    1.000000    
    556 Si    c    0.249658 *  0.119513 *  0.799793 *   0.00000    1.000000    
    557 Si    c    0.684015 *  0.053977 *  0.989030 *   0.00000    1.000000    
    558 Si    c    0.635522 *  0.288728 *  0.042167 *   0.00000    1.000000    
    559 Si    c    0.834953 *  0.841735 *  0.693114 *   0.00000    1.000000    
    560 Si    c    0.823490 *  0.912597 *  0.107747 *   0.00000    1.000000    
    561 Si    c    0.995086 *  0.266910 *  0.734914 *   0.00000    1.000000    
    562 Si    c    0.280058 *  0.173122 *  0.052707 *   0.00000    1.000000    
    563 Si    c    0.023345 *  0.854220 *  0.452010 *   0.00000    1.000000    
    564 Si    c    0.775702 *  0.599523 *  0.098077 *   0.00000    1.000000    
    565 Si    c    0.258813 *  0.409092 *  0.475635 *   0.00000    1.000000    
    566 Si    c    0.977186 *  0.869849 *  0.237035 *   0.00000    1.000000    
    567 Si    c    0.956669 *  0.467897 *  0.717140 *   0.00000    1.000000    
    568 Si    c    0.028959 *  0.076090 *  0.257315 *   0.00000    1.000000    
    569 Si    c    0.629225 *  0.122114 *  0.259596 *   0.00000    1.000000    
    570 Si    c    0.986047 *  0.900319 *  0.575427 *   0.00000    1.000000    
    571 Si    c    0.755168 *  0.796401 *  0.924269 *   0.00000    1.000000    
    572 Si    c    0.482291 *  0.548384 *  0.217763 *   0.00000    1.000000    
    573 Si    c    0.614376 *  0.741484 *  0.493113 *   0.00000    1.000000    
    574 Si    c    0.921568 *  0.010517 *  0.626316 *   0.00000    1.000000    
    575 Si    c    0.095528 *  0.979747 *  0.792830 *   0.00000    1.000000    
    576 Si    c    0.309215 *  0.678426 *  0.924940 *   0.00000    1.000000    
    577 Si    c    0.262934 *  0.882684 *  0.064653 *   0.00000    1.000000    
    578 Si    c    0.474678 *  0.272293 *  0.642129 *   0.00000    1.000000    
    579 Si    c    0.529424 *  0.712024 *  0.788996 *   0.00000    1.000000    
    580 Si    c    0.578125 *  0.306643 *  0.801457 *   0.00000    1.000000    
    581 Si    c    0.982443 *  0.772922 *  0.345831 *   0.00000    1.000000    
    582 Si    c    0.765205 *  0.676388 *  0.856385 *   0.00000    1.000000    
    583 Si    c    0.842717 *  0.855631 *  0.168613 *   0.00000    1.000000    
    584 Si    c    0.235510 *  0.760148 *  0.748030 *   0.00000    1.000000    
    585 Si    c    0.882403 *  0.575548 *  0.366220 *   0.00000    1.000000    
    586 Si    c    0.748103 *  0.242399 *  0.906466 *   0.00000    1.000000    
    587 Si    c    0.528966 *  0.079425 *  0.354575 *   0.00000    1.000000    
    588 Si    c    0.933440 *  0.214318 *  0.401199 *   0.00000    1.000000    
    589 Si    c    0.489951 *  0.357286 *  0.555293 *   0.00000    1.000000    
    590 Si    c    0.623379 *  0.166630 *  0.835428 *   0.00000    1.000000    
    591 Si    c    0.771117 *  0.722773 *  0.263132 *   0.00000    1.000000    
    592 Si    c    0.674066 *  0.608079 *  0.442399 *   0.00000    1.000000    
    593 Si    c    0.171410 *  0.520839 *  0.475126 *   0.00000    1.000000    
    594 Si    c    0.397787 *  0.532414 *  0.113350 *   0.00000    1.000000    
    595 Si    c    0.750761 *  0.727989 *  0.116944 *   0.00000    1.000000    
    596 Si    c    0.641531 *  0.993585 *  0.028806 *   0.00000    1.000000    
    597 Si    c    0.914063 *  0.967844 *  0.177644 *   0.00000    1.000000    
    598 Si    c    0.000661 *  0.179519 *  0.633709 *   0.00000    1.000000    
    599 Si    c    0.260506 *  0.160892 *  0.509278 *   0.00000    1.000000    
    600 Si    c    0.322451 *  0.158231 *  0.905074 *   0.00000    1.000000    
    601 Si    c    0.267233 *  0.519150 *  0.103490 *   0.00000    1.000000    
    602 Si    c    0.423187 *  0.572253 *  0.281485 *   0.00000    1.000000    
    603 Si    c    0.435456 *  0.065830 *  0.854747 *   0.00000    1.000000    
    604 Si    c    0.635875 *  0.147739 *  0.917233 *   0.00000    1.000000    
    605 Si    c    0.500123 *  0.230375 *  0.333096 *   0.00000    1.000000    
    606 Si    c    0.122730 *  0.438231 *  0.955641 *   0.00000    1.000000    
    607 Si    c    0.637837 *  0.061954 *  0.447051 *   0.00000    1.000000    
    608 Si    c    0.981813 *  0.616402 *  0.696451 *   0.00000    1.000000    
    609 Si    c    0.983068 *  0.974822 *  0.904296 *   0.00000    1.000000    
    610 Si    c    0.588840 *  0.252106 *  0.573777 *   0.00000    1.000000    
    611 Si    c    0.936319 *  0.949152 *  0.782999 *   0.00000    1.000000    
    612 Si    c    0.160898 *  0.459317 *  0.706302 *   0.00000    1.000000    
    613 Si    c    0.703155 *  0.336536 *  0.597409 *   0.00000    1.000000    
    614 Si    c    0.915678 *  0.843280 *  0.726200 *   0.00000    1.000000    
    615 Si    c    0.415638 *  0.971068 *  0.178405 *   0.00000    1.000000    
    616 Si    c    0.649319 *  0.380671 *  0.368119 *   0.00000    1.000000    
    617 Si    c    0.069420 *  0.701500 *  0.903578 *   0.00000    1.000000    
    618 Si    c    0.493881 *  0.946083 *  0.370034 *   0.00000    1.000000    
    619 Si    c    0.325070 *  0.752879 *  0.266039 *   0.00000    1.000000    
    620 Si    c    0.074731 *  0.721552 *  0.252671 *   0.00000    1.000000    
    621 Si    c    0.381784 *  0.717263 *  0.803569 *   0.00000    1.000000    
    622 Si    c    0.247738 *  0.828323 *  0.612937 *   0.00000    1.000000    
    623 Si    c    0.430814 *  0.345105 *  0.270519 *   0.00000    1.000000    
    624 Si    c    0.199088 *  0.031753 *  0.955479 *   0.00000    1.000000    
    625 Si    c    0.607938 *  0.576673 *  0.489542 *   0.00000    1.000000    
    626 Si    c    0.547977 *  0.415116 *  0.263585 *   0.00000    1.000000    
    627 Si    c    0.808755 *  0.139974 *  0.289155 *   0.00000    1.000000    
    628 Si    c    0.211427 *  0.156876 *  0.345748 *   0.00000    1.000000    
    629 Si    c    0.574409 *  0.602578 *  0.734525 *   0.00000    1.000000    
    630 Si    c    0.383243 *  0.797603 *  0.838581 *   0.00000    1.000000    
    631 Si    c    0.584134 *  0.637310 *  0.083374 *   0.00000    1.000000    
    632 Si    c    0.740219 *  0.491297 *  0.700321 *   0.00000    1.000000    
    633 Si    c    0.878031 *  0.230120 *  0.031965 *   0.00000    1.000000    
    634 Si    c    0.043792 *  0.514260 *  0.622007 *   0.00000    1.000000    
    635 Si    c    0.049671 *  0.105143 *  0.865225 *   0.00000    1.000000    
    636 Si    c    0.657120 *  0.799563 *  0.543485 *   0.00000    1.000000    
    637 Si    c    0.608594 *  0.954202 *  0.961071 *   0.00000    1.000000    
    638 Si    c    0.196275 *  0.643415 *  0.932291 *   0.00000    1.000000    
    639 Si    c    0.326048 *  0.318969 *  0.006166 *   0.00000    1.000000    
    640 Si    c    0.851283 *  0.795069 *  0.042895 *   0.00000    1.000000    
    641 Si    c    0.998322 *  0.138048 *  0.926550 *   0.00000    1.000000    
    642 Si    c    0.399043 *  0.049406 *  0.324634 *   0.00000    1.000000    
    643 Si    c    0.326754 *  0.547712 *  0.159873 *   0.00000    1.000000    
    644 Si    c    0.161054 *  0.727948 *  0.721364 *   0.00000    1.000000    
    645 Si    c    0.037819 *  0.090256 *  0.396845 *   0.00000    1.000000    
    646 Si    c    0.526754 *  0.980273 *  0.790585 *   0.00000    1.000000    
    647 Si    c    0.670879 *  0.485332 *  0.901216 *   0.00000    1.000000    
    648 Si    c    0.756538 *  0.554359 *  0.985377 *   0.00000    1.000000    
    649 Si    c    0.440750 *  0.546419 *  0.901850 *   0.00000    1.000000    
    650 Si    c    0.778328 *  0.657122 *  0.606010 *   0.00000    1.000000    
    651 Si    c    0.723823 *  0.237583 *  0.695848 *   0.00000    1.000000    
    652 Si    c    0.970496 *  0.350767 *  0.424791 *   0.00000    1.000000    
    653 Si    c    0.191251 *  0.506028 *  0.339381 *   0.00000    1.000000    
    654 Si    c    0.901510 *  0.432254 *  0.661034 *   0.00000    1.000000    
    655 Si    c    0.291007 *  0.757219 *  0.128482 *   0.00000    1.000000    
    656 Si    c    0.069406 *  0.457154 *  0.081823 *   0.00000    1.000000    
    657 Si    c    0.427768 *  0.473991 *  0.217301 *   0.00000    1.000000    
    658 Si    c    0.234396 *  0.586473 *  0.056304 *   0.00000    1.000000    
    659 Si    c    0.944038 *  0.735400 *  0.947137 *   0.00000    1.000000    
    660 Si    c    0.278436 *  0.824075 *  0.693252 *   0.00000    1.000000    
    661 Si    c    0.586034 *  0.269070 *  0.973500 *   0.00000    1.000000    
    662 Si    c    0.704329 *  0.653633 *  0.121520 *   0.00000    1.000000    
    663 Si    c    0.025277 *  0.578457 *  0.025680 *   0.00000    1.000000    
    664 Si    c    0.037215 *  0.916477 *  0.507940 *   0.00000    1.000000    
    665 Si    c    0.619320 *  0.358166 *  0.093634 *   0.00000    1.000000    
    666 Si    c    0.541100 *  0.526113 *  0.637654 *   0.00000    1.000000    
    667 Si    c    0.431554 *  0.456310 *  0.132463 *   0.00000    1.000000    
    668 Si    c    0.469905 *  0.717182 *  0.474518 *   0.00000    1.000000    
    669 Si    c    0.763459 *  0.321484 *  0.802504 *   0.00000    1.000000    
    670 Si    c    0.744829 *  0.185840 *  0.323433 *   0.00000    1.000000    
    671 Si    c    0.861803 *  0.265511 *  0.702459 *   0.00000    1.000000    
    672 Si    c    0.303827 *  0.424025 *  0.250952 *   0.00000    1.000000    
    673 Si    c    0.272028 *  0.504387 *  0.558537 *   0.00000    1.000000    
    674 Si    c    0.589915 *  0.988664 *  0.271727 *   0.00000    1.000000    
    675 Si    c    0.053200 *  0.463292 *  0.375878 *   0.00000    1.000000    
    676 Si    c    0.926221 *  0.419540 *  0.396945 *   0.00000    1.000000    
    677 Si    c    0.297340 *  0.178552 *  0.257212 *   0.00000    1.000000    
    678 Si    c    0.743732 *  0.176160 *  0.640818 *   0.00000    1.000000    
    679 Si    c    0.377596 *  0.672108 *  0.031929 *   0.00000    1.000000    
    680 Si    c    0.070967 *  0.820000 *  0.792787 *   0.00000    1.000000    
    681 Si    c    0.119800 *  0.092391 *  0.704763 *   0.00000    1.000000    
    682 Si    c    0.457337 *  0.293511 *  0.208227 *   0.00000    1.000000    
    683 Si    c    0.722293 *  0.068569 *  0.784163 *   0.00000    1.000000    
    684 Si    c    0.551367 *  0.858558 *  0.137911 *   0.00000    1.000000    
    685 Si    c    0.837978 *  0.342616 *  0.578343 *   0.00000    1.000000    
    686 Si    c    0.080491 *  0.318125 *  0.115989 *   0.00000    1.000000    
    687 Si    c    0.809853 *  0.366326 *  0.096750 *   0.00000    1.000000    
    688 Si    c    0.143650 *  0.445694 *  0.875590 *   0.00000    1.000000    
    689 Si    c    0.735849 *  0.938304 *  0.440815 *   0.00000    1.000000    
    690 Si    c    0.190817 *  0.312913 *  0.684751 *   0.00000    1.000000    
    691 Si    c    0.610489 *  0.556389 *  0.672999 *   0.00000    1.000000    
    692 Si    c    0.754074 *  0.368195 *  0.264055 *   0.00000    1.000000    
    693 Si    c    0.565048 *  0.187216 *  0.952515 *   0.00000    1.000000    
    694 Si    c    0.680657 *  0.640205 *  0.208052 *   0.00000    1.000000    
    695 Si    c    0.058799 *  0.930005 *  0.922864 *   0.00000    1.000000    
    696 Si    c    0.774291 *  0.233034 *  0.082947 *   0.00000    1.000000    
    697 Si    c    0.848852 *  0.294971 *  0.985991 *   0.00000    1.000000    
    698 Si    c    0.686502 *  0.019734 *  0.190305 *   0.00000    1.000000    
    699 Si    c    0.756339 *  0.424723 *  0.134096 *   0.00000    1.000000    
    700 Si    c    0.847608 *  0.292954 *  0.788021 *   0.00000    1.000000    
    701 Si    c    0.765558 *  0.994679 *  0.192747 *   0.00000    1.000000    
    702 Si    c    0.902915 *  0.317614 *  0.316448 *   0.00000    1.000000    
    703 Si    c    0.386762 *  0.839153 *  0.758767 *   0.00000    1.000000    
    704 Si    c    0.377178 *  0.249333 *  0.441316 *   0.00000    1.000000    
    705 Si    c    0.804379 *  0.782686 *  0.542583 *   0.00000    1.000000    
    706 Si    c    0.691641 *  0.578184 *  0.794003 *   0.00000    1.000000    
    707 Si    c    0.011794 *  0.113811 *  0.133376 *   0.00000    1.000000    
    708 Si    c    0.387061 *  0.970538 *  0.771771 *   0.00000    1.000000    
    709 Si    c    0.543535 *  0.701202 *  0.522735 *   0.00000    1.000000    
    710 Si    c    0.594748 *  0.000370 *  0.742687 *   0.00000    1.000000    
    711 Si    c    0.844057 *  0.153716 *  0.931825 *   0.00000    1.000000    
    712 Si    c    0.525504 *  0.625117 *  0.018544 *   0.00000    1.000000    
    713 Si    c    0.310955 *  0.020409 *  0.870550 *   0.00000    1.000000    
    714 Si    c    0.185477 *  0.643336 *  0.530768 *   0.00000    1.000000    
    715 Si    c    0.072584 *  0.238617 *  0.709306 *   0.00000    1.000000    
    716 Si    c    0.584687 *  0.726134 *  0.355320 *   0.00000    1.000000    
    717 Si    c    0.365269 *  0.687365 *  0.226005 *   0.00000    1.000000    
    718 Si    c    0.052250 *  0.995339 *  0.476947 *   0.00000    1.000000    
    719 Si    c    0.410516 *  0.387065 *  0.923219 *   0.00000    1.000000    
    720 Si    c    0.917475 *  0.690095 *  0.582611 *   0.00000    1.000000    
    721 Si    c    0.070127 *  0.726170 *  0.640615 *   0.00000    1.000000    
    722 Si    c    0.688626 *  0.090234 *  0.143115 *   0.00000    1.000000    
    723 Si    c    0.126416 *  0.359023 *  0.982577 *   0.00000    1.000000    
    724 Si    c    0.863896 *  0.173909 *  0.163905 *   0.00000    1.000000    
    725 Si    c    0.445033 *  0.424955 *  0.994562 *   0.00000    1.000000    
    726 Si    c    0.364575 *  0.483892 *  0.737562 *   0.00000    1.000000    
    727 Si    c    0.840686 *  0.318801 *  0.160025 *   0.00000    1.000000    
    728 Si    c    0.495699 *  0.066812 *  0.219891 *   0.00000    1.000000    
    729 Si    c    0.843445 *  0.263538 *  0.288695 *   0.00000    1.000000    
    730 Si    c    0.997945 *  0.576760 *  0.879374 *   0.00000    1.000000    
    731 Si    c    0.964365 *  0.095827 *  0.204579 *   0.00000    1.000000    
    732 Si    c    0.012914 *  0.768573 *  0.907936 *   0.00000    1.000000    
    733 Si    c    0.949883 *  0.165845 *  0.706563 *   0.00000    1.000000    
    734 Si    c    0.260097 *  0.651789 *  0.645986 *   0.00000    1.000000    
    735 Si    c    0.050562 *  0.421866 *  0.222107 *   0.00000    1.000000    
    736 Si    c    0.694857 *  0.077134 *  0.513806 *   0.00000    1.000000    
    737 Si    c    0.278839 *  0.072350 *  0.733929 *   0.00000    1.000000    
    738 Si    c    0.750820 *  0.513803 *  0.238259 *   0.00000    1.000000    
    739 Si    c    0.461905 *  0.423734 *  0.277923 *   0.00000    1.000000    
    740 Si    c    0.495123 *  0.674694 *  0.282551 *   0.00000    1.000000    
    741 Si    c    0.061500 *  0.438474 *  0.501762 *   0.00000    1.000000    
    742 Si    c    0.708688 *  0.421471 *  0.578840 *   0.00000    1.000000    
    743 Si    c    0.297720 *  0.492553 *  0.685285 *   0.00000    1.000000    
    744 Si    c    0.831555 *  0.239444 *  0.920822 *   0.00000    1.000000    
    745 Si    c    0.251345 *  0.787923 *  0.888489 *   0.00000    1.000000    
    746 Si    c    0.121092 *  0.770118 *  0.382049 *   0.00000    1.000000    
    747 Si    c    0.039421 *  0.019450 *  0.848904 *   0.00000    1.000000    
    748 Si    c    0.215319 *  0.316954 *  0.089109 *   0.00000    1.000000    
    749 Si    c    0.196341 *  0.621134 *  0.385890 *   0.00000    1.000000    
    750 Si    c    0.362615 *  0.949740 *  0.241837 *   0.00000    1.000000    
    751 Si    c    0.663612 *  0.698719 *  0.340496 *   0.00000    1.000000    
    752 Si    c    0.330319 *  0.056623 *  0.004748 *   0.00000    1.000000    
    753 Si    c    0.813588 *  0.088069 *  0.573636 *   0.00000    1.000000    
    754 Si    c    0.129598 *  0.735804 *  0.856554 *   0.00000    1.000000    
    755 Si    c    0.565662 *  0.115262 *  0.199973 *   0.00000    1.000000    
    756 Si    c    0.255463 *  0.684027 *  0.156281 *   0.00000    1.000000    
    757 Si    c    0.821243 *  0.608843 *  0.975621 *   0.00000    1.000000    
    758 Si    c    0.133911 *  0.731611 *  0.458341 *   0.00000    1.000000    
    759 Si    c    0.921562 *  0.345738 *  0.959195 *   0.00000    1.000000    
    760 Si    c    0.318398 *  0.320883 *  0.338088 *   0.00000    1.000000    
    761 Si    c    0.004241 *  0.642513 *  0.442604 *   0.00000    1.000000    
    762 Si    c    0.101162 *  0.624560 *  0.524309 *   0.00000    1.000000    
    763 Si    c    0.395648 *  0.711806 *  0.522406 *   0.00000    1.000000    
    764 Si    c    0.268344 *  0.063440 *  0.137950 *   0.00000    1.000000    
    765 Si    c    0.088658 *  0.539046 *  0.071098 *   0.00000    1.000000    
    766 Si    c    0.132462 *  0.641478 *  0.147437 *   0.00000    1.000000    
    767 Si    c    0.690928 *  0.679633 *  0.706061 *   0.00000    1.000000    
    768 Si    c    0.523283 *  0.652274 *  0.937697 *   0.00000    1.000000    
    769 Si    c    0.672968 *  0.834367 *  0.753322 *   0.00000    1.000000    
    770 Si    c    0.613289 *  0.595158 *  0.239314 *   0.00000    1.000000    
    771 Si    c    0.746639 *  0.317097 *  0.669233 *   0.00000    1.000000    
    772 Si    c    0.854237 *  0.473660 *  0.599073 *   0.00000    1.000000    
    773 Si    c    0.312325 *  0.843541 *  0.866572 *   0.00000    1.000000    
    774 Si    c    0.507549 *  0.072939 *  0.674675 *   0.00000    1.000000    
    775 Si    c    0.713833 *  0.100593 *  0.057407 *   0.00000    1.000000    
    776 Si    c    0.378210 *  0.259924 *  0.356824 *   0.00000    1.000000    
    777 Si    c    0.747809 *  0.196965 *  0.768822 *   0.00000    1.000000    
    778 Si    c    0.566812 *  0.106221 *  0.467112 *   0.00000    1.000000    
    779 Si    c    0.478446 *  0.428170 *  0.412593 *   0.00000    1.000000    
    780 Si    c    0.696380 *  0.330444 *  0.318383 *   0.00000    1.000000    
    781 Si    c    0.267361 *  0.982637 *  0.587713 *   0.00000    1.000000    
    782 Si    c    0.170086 *  0.277976 *  0.358190 *   0.00000    1.000000    
    783 Si    c    0.886272 *  0.966967 *  0.095852 *   0.00000    1.000000    
    784 Si    c    0.132078 *  0.214947 *  0.019517 *   0.00000    1.000000    
    785 Si    c    0.149212 *  0.204921 *  0.796916 *   0.00000    1.000000    
    786 Si    c    0.488017 *  0.853098 *  0.650232 *   0.00000    1.000000    
    787 Si    c    0.259595 *  0.253937 *  0.242158 *   0.00000    1.000000    
    788 Si    c    0.346143 *  0.493403 *  0.225270 *   0.00000    1.000000    
    789 Si    c    0.179166 *  0.081820 *  0.835977 *   0.00000    1.000000    
    790 Si    c    0.985505 *  0.082626 *  0.728520 *   0.00000    1.000000    
    791 Si    c    0.796459 *  0.555130 *  0.364242 *   0.00000    1.000000    
    792 Si    c    0.771494 *  0.485950 *  0.317628 *   0.00000    1.000000    
    793 Si    c    0.226919 *  0.434022 *  0.856040 *   0.00000    1.000000    
    794 Si    c    0.864396 *  0.442745 *  0.223632 *   0.00000    1.000000    
    795 Si    c    0.218185 *  0.954069 *  0.689936 *   0.00000    1.000000    
    796 Si    c    0.985891 *  0.902160 *  0.085897 *   0.00000    1.000000    
    797 Si    c    0.902368 *  0.546208 *  0.445901 *   0.00000    1.000000    
    798 Si    c    0.921153 *  0.489383 *  0.794646 *   0.00000    1.000000    
    799 Si    c    0.545937 *  0.914460 *  0.075218 *   0.00000    1.000000    
    800 Si    c    0.160456 *  0.516878 *  0.198749 *   0.00000    1.000000    
    801 Si    c    0.367590 *  0.224339 *  0.870870 *   0.00000    1.000000    
    802 Si    c    0.391120 *  0.282717 *  0.152836 *   0.00000    1.000000    
    803 Si    c    0.947936 *  0.232482 *  0.594107 *   0.00000    1.000000    
    804 Si    c    0.725354 *  0.753488 *  0.855449 *   0.00000    1.000000    
    805 Si    c    0.341135 *  0.830154 *  0.467753 *   0.00000    1.000000    
    806 Si    c    0.767319 *  0.854347 *  0.214500 *   0.00000    1.000000    
    807 Si    c    0.055233 *  0.326759 *  0.944399 *   0.00000    1.000000    
    808 Si    c    0.386692 *  0.126965 *  0.641431 *   0.00000    1.000000    
    809 Si    c    0.761450 *  0.132369 *  0.520751 *   0.00000    1.000000    
    810 Si    c    0.756603 *  0.724997 *  0.970408 *   0.00000    1.000000    
    811 Si    c    0.994580 *  0.225864 *  0.180805 *   0.00000    1.000000    
    812 Si    c    0.302630 *  0.615424 *  0.779105 *   0.00000    1.000000    
    813 Si    c    0.576142 *  0.214757 *  0.289984 *   0.00000    1.000000    
    814 Si    c    0.599000 *  0.425554 *  0.975015 *   0.00000    1.000000    
    815 Si    c    0.292817 *  0.531201 *  0.916699 *   0.00000    1.000000    
    816 Si    c    0.271452 *  0.894181 *  0.810124 *   0.00000    1.000000    
    817 Si    c    0.957105 *  0.280801 *  0.903543 *   0.00000    1.000000    
    818 Si    c    0.525364 *  0.393218 *  0.010515 *   0.00000    1.000000    
    819 Si    c    0.421568 *  0.115446 *  0.441520 *   0.00000    1.000000    
    820 Si    c    0.390639 *  0.450757 *  0.528258 *   0.00000    1.000000    
    821 Si    c    0.069611 *  0.650771 *  0.681122 *   0.00000    1.000000    
    822 Si    c    0.495490 *  0.759903 *  0.277786 *   0.00000    1.000000    
    823 Si    c    0.018018 *  0.404208 *  0.717126 *   0.00000    1.000000    
    824 Si    c    0.019705 *  0.131333 *  0.323360 *   0.00000    1.000000    
    825 Si    c    0.372161 *  0.529076 *  0.032809 *   0.00000    1.000000    
    826 Si    c    0.993347 *  0.854095 *  0.318143 *   0.00000    1.000000    
    827 Si    c    0.219807 *  0.200319 *  0.576615 *   0.00000    1.000000    
    828 Si    c    0.030258 *  0.032539 *  0.108647 *   0.00000    1.000000    
    829 Si    c    0.234088 *  0.204357 *  0.787177 *   0.00000    1.000000    
    830 Si    c    0.315993 *  0.359531 *  0.421062 *   0.00000    1.000000    
    831 Si    c    0.959980 *  0.392265 *  0.125750 *   0.00000    1.000000    
    832 Si    c    0.707574 *  0.404781 *  0.201360 *   0.00000    1.000000    
    833 Si    c    0.075455 *  0.195517 *  0.307746 *   0.00000    1.000000    
    834 Si    c    0.559850 *  0.004719 *  0.553476 *   0.00000    1.000000    
    835 Si    c    0.148502 *  0.041508 *  0.767453 *   0.00000    1.000000    
    836 Si    c    0.931859 *  0.439086 *  0.061190 *   0.00000    1.000000    
    837 Si    c    0.306193 *  0.891158 *  0.207298 *   0.00000    1.000000    
    838 Si    c    0.093778 *  0.163473 *  0.746103 *   0.00000    1.000000    
    839 Si    c    0.292284 *  0.895907 *  0.582200 *   0.00000    1.000000    
    840 Si    c    0.796570 *  0.965064 *  0.714490 *   0.00000    1.000000    
    841 Si    c    0.806269 *  0.837846 *  0.773424 *   0.00000    1.000000    
    842 Si    c    0.369061 *  0.557100 *  0.785022 *   0.00000    1.000000    
    843 Si    c    0.154150 *  0.712081 *  0.046491 *   0.00000    1.000000    
    844 Si    c    0.452779 *  0.371219 *  0.750145 *   0.00000    1.000000    
    845 Si    c    0.891752 *  0.562678 *  0.959614 *   0.00000    1.000000    
    846 Si    c    0.480225 *  0.892964 *  0.894480 *   0.00000    1.000000    
    847 Si    c    0.081053 *  0.015859 *  0.395573 *   0.00000    1.000000    
    848 Si    c    0.871024 *  0.556548 *  0.822250 *   0.00000    1.000000    
    849 Si    c    0.212725 *  0.843098 *  0.464669 *   0.00000    1.000000    
    850 Si    c    0.688337 *  0.289294 *  0.453797 *   0.00000    1.000000    
    851 Si    c    0.631921 *  0.770502 *  0.067039 *   0.00000    1.000000    
    852 Si    c    0.673166 *  0.452249 *  0.505413 *   0.00000    1.000000    
    853 Si    c    0.604271 *  0.380445 *  0.900425 *   0.00000    1.000000    
    854 Si    c    0.543087 *  0.482313 *  0.208094 *   0.00000    1.000000    
    855 Si    c    0.423902 *  0.088261 *  0.708308 *   0.00000    1.000000    
    856 Si    c    0.410532 *  0.817753 *  0.627258 *   0.00000    1.000000    
    857 Si    c    0.063100 *  0.298259 *  0.514416 *   0.00000    1.000000    
    858 Si    c    0.844696 *  0.022240 *  0.826785 *   0.00000    1.000000    
    859 Si    c    0.245795 *  0.765063 *  0.554476 *   0.00000    1.000000    
    860 Si    c    0.324600 *  0.161610 *  0.180372 *   0.00000    1.000000    
    861 Si    c    0.378683 *  0.884203 *  0.579169 *   0.00000    1.000000    
    862 Si    c    0.118062 *  0.191877 *  0.230574 *   0.00000    1.000000    
    863 Si    c    0.517849 *  0.052078 *  0.839906 *   0.00000    1.000000    
    864 Si    c    0.720149 *  0.358613 *  0.738145 *   0.00000    1.000000    
    865 Si    c    0.921737 *  0.507497 *  0.233803 *   0.00000    1.000000    
    866 Si    c    0.983418 *  0.951838 *  0.642587 *   0.00000    1.000000    
    867 Si    c    0.243274 *  0.294153 *  0.010771 *   0.00000    1.000000    
    868 Si    c    0.398785 *  0.197001 *  0.159501 *   0.00000    1.000000    
    869 Si    c    0.822240 *  0.012223 *  0.990135 *   0.00000    1.000000    
    870 Si    c    0.859531 *  0.624626 *  0.617080 *   0.00000    1.000000    
    871 Si    c    0.754484 *  0.168832 *  0.025005 *   0.00000    1.000000    
    872 Si    c    0.184610 *  0.309427 *  0.434626 *   0.00000    1.000000    
    873 Si    c    0.900663 *  0.358276 *  0.775258 *   0.00000    1.000000    
    874 Si    c    0.502339 *  0.594961 *  0.606173 *   0.00000    1.000000    
    875 Si    c    0.112483 *  0.593391 *  0.374954 *   0.00000    1.000000    
    876 Si    c    0.153995 *  0.556949 *  0.608709 *   0.00000    1.000000    
    877 Si    c    0.784846 *  0.496146 *  0.041315 *   0.00000    1.000000    
    878 Si    c    0.111847 *  0.033111 *  0.525710 *   0.00000    1.000000    
    879 Si    c    0.112901 *  0.237471 *  0.102618 *   0.00000    1.000000    
    880 Si    c    0.949758 *  0.992505 *  0.340524 *   0.00000    1.000000    
    881 Si    c    0.248711 *  0.420649 *  0.577892 *   0.00000    1.000000    
    882 Si    c    0.544887 *  0.666627 *  0.154522 *   0.00000    1.000000    
    883 Si    c    0.828799 *  0.331059 *  0.662206 *   0.00000    1.000000    
    884 Si    c    0.500008 *  0.206323 *  0.074766 *   0.00000    1.000000    
    885 Si    c    0.190067 *  0.973886 *  0.419549 *   0.00000    1.000000    
    886 Si    c    0.104762 *  0.233102 *  0.875130 *   0.00000    1.000000    
    887 Si    c    0.009518 *  0.996763 *  0.280447 *   0.00000    1.000000    
    888 Si    c    0.072551 *  0.879860 *  0.326051 *   0.00000    1.000000    
    889 Si    c    0.678363 *  0.618142 *  0.357511 *   0.00000    1.000000    
    890 Si    c    0.880290 *  0.579073 *  0.178324 *   0.00000    1.000000    
    891 Si    c    0.046665 *  0.553599 *  0.947796 *   0.00000    1.000000    
    892 Si    c    0.440725 *  0.602151 *  0.762008 *   0.00000    1.000000    
    893 Si    c    0.489374 *  0.789686 *  0.429674 *   0.00000    1.000000    
    894 Si    c    0.930992 *  0.932251 *  0.021572 *   0.00000    1.000000    
    895 Si    c    0.438613 *  0.978375 *  0.988990 *   0.00000    1.000000    
    896 Si    c    0.104855 *  0.509894 *  0.328744 *   0.00000    1.000000    
    897 Si    c    0.699944 *  0.944129 *  0.522576 *   0.00000    1.000000    
    898 Si    c    0.102927 *  0.322619 *  0.329504 *   0.00000    1.000000    
    899 Si    c    0.828198 *  0.155458 *  0.781062 *   0.00000    1.000000    
    900 Si    c    0.912484 *  0.954072 *  0.481210 *   0.00000    1.000000    
    901 Si    c    0.635491 *  0.253893 *  0.838561 *   0.00000    1.000000    
    902 Si    c    0.687052 *  0.819281 *  0.399482 *   0.00000    1.000000    
    903 Si    c    0.614310 *  0.937901 *  0.526952 *   0.00000    1.000000    
    904 Si    c    0.962839 *  0.213760 *  0.035928 *   0.00000    1.000000    
    905 Si    c    0.645318 *  0.523384 *  0.544087 *   0.00000    1.000000    
    906 Si    c    0.514186 *  0.314388 *  0.981148 *   0.00000    1.000000    
    907 Si    c    0.620543 *  0.975029 *  0.662718 *   0.00000    1.000000    
    908 Si    c    0.869242 *  0.995143 *  0.749818 *   0.00000    1.000000    
    909 Si    c    0.018835 *  0.103003 *  0.598722 *   0.00000    1.000000    
    910 Si    c    0.408728 *  0.961125 *  0.602993 *   0.00000    1.000000    
    911 Si    c    0.373345 *  0.948778 *  0.107313 *   0.00000    1.000000    
    912 Si    c    0.965522 *  0.286341 *  0.366204 *   0.00000    1.000000    
    913 Si    c    0.214229 *  0.087480 *  0.388962 *   0.00000    1.000000    
    914 Si    c    0.730108 *  0.286361 *  0.532143 *   0.00000    1.000000    
    915 Si    c    0.800184 *  0.954542 *  0.853937 *   0.00000    1.000000    
    916 Si    c    0.239292 *  0.410853 *  0.195364 *   0.00000    1.000000    
    917 Si    c    0.887985 *  0.796183 *  0.121373 *   0.00000    1.000000    
    918 Si    c    0.797449 *  0.727850 *  0.045189 *   0.00000    1.000000    
    919 Si    c    0.943163 *  0.358547 *  0.636070 *   0.00000    1.000000    
    920 Si    c    0.199828 *  0.280298 *  0.551138 *   0.00000    1.000000    
    921 Si    c    0.410617 *  0.440737 *  0.855249 *   0.00000    1.000000    
    922 Si    c    0.319637 *  0.754951 *  0.505062 *   0.00000    1.000000    
    923 Si    c    0.493520 *  0.189728 *  0.820875 *   0.00000    1.000000    
    924 Si    c    0.632205 *  0.301241 *  0.910265 *   0.00000    1.000000    
    925 Si    c    0.621070 *  0.881578 *  0.188332 *   0.00000    1.000000    
    926 Si    c    0.943839 *  0.543739 *  0.312466 *   0.00000    1.000000    
    927 Si    c    0.199260 *  0.676171 *  0.452925 *   0.00000    1.000000    
    928 Si    c    0.421146 *  0.005050 *  0.527064 *   0.00000    1.000000    
    929 Si    c    0.591599 *  0.435654 *  0.335325 *   0.00000    1.000000    
    930 Si    c    0.491977 *  0.042876 *  0.966689 *   0.00000    1.000000    
    931 Si    c    0.638202 *  0.696489 *  0.639620 *   0.00000    1.000000    
    932 Si    c    0.717370 *  0.041477 *  0.335144 *   0.00000    1.000000    
    933 Si    c    0.128391 *  0.476903 *  0.628798 *   0.00000    1.000000    
    934 Si    c    0.717857 *  0.156458 *  0.188288 *   0.00000    1.000000    
    935 Si    c    0.073815 *  0.964864 *  0.323132 *   0.00000    1.000000    
    936 Si    c    0.754016 *  0.570697 *  0.730792 *   0.00000    1.000000    
    937 Si    c    0.554982 *  0.236207 *  0.137025 *   0.00000    1.000000    
    938 Si    c    0.534557 *  0.378695 *  0.096983 *   0.00000    1.000000    
    939 Si    c    0.807294 *  0.428944 *  0.468020 *   0.00000    1.000000    
    940 Si    c    0.534027 *  0.427358 *  0.528786 *   0.00000    1.000000    
    941 Si    c    0.296994 *  0.804011 *  0.201427 *   0.00000    1.000000    
    942 Si    c    0.569715 *  0.623726 *  0.554591 *   0.00000    1.000000    
    943 Si    c    0.209679 *  0.799767 *  0.205054 *   0.00000    1.000000    
    944 Si    c    0.460981 *  0.285563 *  0.726464 *   0.00000    1.000000    
    945 Si    c    0.441005 *  0.075665 *  0.085854 *   0.00000    1.000000    
    946 Si    c    0.936076 *  0.154767 *  0.342297 *   0.00000    1.000000    
    947 Si    c    0.557377 *  0.017969 *  0.915198 *   0.00000    1.000000    
    948 Si    c    0.451516 *  0.300878 *  0.340316 *   0.00000    1.000000    
    949 Si    c    0.557242 *  0.805734 *  0.687727 *   0.00000    1.000000    
    950 Si    c    0.773843 *  0.111967 *  0.906142 *   0.00000    1.000000    
    951 Si    c    0.907097 *  0.745250 *  0.312875 *   0.00000    1.000000    
    952 Si    c    0.373776 *  0.777688 *  0.336434 *   0.00000    1.000000    
    953 Si    c    0.316045 *  0.345171 *  0.793896 *   0.00000    1.000000    
    954 Si    c    0.636845 *  0.280970 *  0.272750 *   0.00000    1.000000    
[...]
    744 Si    c       0.001796     -0.000599      0.001072      0.000000
    745 Si    c       0.002119      0.000600      0.000718      0.000000
    746 Si    c       0.000426      0.000635     -0.000414      0.000000
    747 Si    c       0.001339      0.001063     -0.001013      0.000000
    748 Si    c       0.000522      0.001388      0.000769      0.000000
    749 Si    c       0.000635     -0.001370      0.002549      0.000000
    750 Si    c       0.000429     -0.000812     -0.001897      0.000000
    751 Si    c       0.001679     -0.001101      0.000089      0.000000
    752 Si    c       0.001967      0.000678     -0.000654      0.000000
    753 Si    c       0.001003      0.000015     -0.000958      0.000000
    754 Si    c       0.000527     -0.000428     -0.001348      0.000000
    755 Si    c       0.000336     -0.001706      0.002100      0.000000
    756 Si    c      -0.000126      0.001457      0.000239      0.000000
    757 Si    c       0.001924      0.001316     -0.000822      0.000000
    758 Si    c       0.000791     -0.001654     -0.000109      0.000000
    759 Si    c      -0.000896      0.001970      0.000300      0.000000
    760 Si    c       0.001740      0.002789     -0.000897      0.000000
    761 Si    c       0.000911      0.000344     -0.000102      0.000000
    762 Si    c       0.001921      0.000421     -0.000024      0.000000
    763 Si    c       0.002457      0.000664     -0.001410      0.000000
    764 Si    c      -0.000197     -0.000044     -0.001868      0.000000
    765 Si    c       0.001602     -0.000037     -0.000501      0.000000
    766 Si    c      -0.000654      0.000913      0.000479      0.000000
    767 Si    c       0.000959      0.002251     -0.000444      0.000000
    768 Si    c       0.001120      0.001415     -0.001201      0.000000
    769 Si    c       0.000750     -0.001898     -0.000117      0.000000
    770 Si    c      -0.000205      0.001486     -0.000989      0.000000
    771 Si    c       0.002287      0.000134     -0.000017      0.000000
    772 Si    c      -0.005008     -0.004216     -0.003606      0.000000
    773 Si    c       0.002513      0.000784      0.000799      0.000000
    774 Si    c      -0.000065      0.002390      0.001968      0.000000
    775 Si    c      -0.001239      0.000527     -0.000583      0.000000
    776 Si    c       0.001914      0.002326     -0.001096      0.000000
    777 Si    c       0.000325      0.000659     -0.000167      0.000000
    778 Si    c       0.001376      0.002146     -0.000253      0.000000
    779 Si    c       0.001774     -0.001106     -0.000856      0.000000
    780 Si    c       0.002897     -0.000263     -0.001788      0.000000
    781 Si    c       0.000669      0.000247     -0.002285      0.000000
    782 Si    c       0.000231     -0.000751      0.001563      0.000000
    783 Si    c      -0.001193      0.000206      0.000297      0.000000
    784 Si    c      -0.000534      0.001314      0.000388      0.000000
    785 Si    c       0.002389      0.000126      0.001091      0.000000
    786 Si    c      -0.000753      0.001806      0.000991      0.000000
    787 Si    c       0.001894      0.000561      0.000007      0.000000
    788 Si    c       0.001117      0.000388      0.000559      0.000000
    789 Si    c       0.004408     -0.002049     -0.004266      0.000000
    790 Si    c       0.001631     -0.000740     -0.002416      0.000000
    791 Si    c       0.001991     -0.000541      0.000642      0.000000
    792 Si    c       0.001439     -0.000530      0.000155      0.000000
    793 Si    c      -0.000328      0.000528      0.000447      0.000000
    794 Si    c      -0.000003      0.000989     -0.000390      0.000000
    795 Si    c       0.001202     -0.003428     -0.000617      0.000000
    796 Si    c       0.002483     -0.001830      0.000929      0.000000
    797 Si    c       0.001823      0.000848     -0.002705      0.000000
    798 Si    c       0.000645      0.000567      0.000134      0.000000
    799 Si    c      -0.000360      0.001797     -0.003339      0.000000
    800 Si    c       0.001359     -0.000318     -0.000496      0.000000
    801 Si    c       0.001301      0.000677      0.000040      0.000000
    802 Si    c       0.001294     -0.001432     -0.000339      0.000000
    803 Si    c      -0.000725     -0.000627     -0.000147      0.000000
    804 Si    c       0.000767     -0.000976     -0.000315      0.000000
    805 Si    c       0.002087     -0.002063     -0.001783      0.000000
    806 Si    c       0.001384      0.001646     -0.001223      0.000000
    807 Si    c      -0.000006      0.000870     -0.000618      0.000000
    808 Si    c       0.001698     -0.000600     -0.000479      0.000000
    809 Si    c       0.001718      0.000428     -0.001124      0.000000
    810 Si    c       0.003449     -0.000221      0.000765      0.000000
    811 Si    c       0.000881     -0.000666     -0.000798      0.000000
    812 Si    c      -0.001822     -0.000651     -0.001582      0.000000
    813 Si    c       0.000593      0.000498     -0.000023      0.000000
    814 Si    c       0.000669      0.001356     -0.000455      0.000000
    815 Si    c       0.001603     -0.001747     -0.000181      0.000000
    816 Si    c       0.000926      0.000508      0.002718      0.000000
    817 Si    c       0.002792      0.000398      0.001615      0.000000
    818 Si    c      -0.000908     -0.001833     -0.000568      0.000000
    819 Si    c       0.001674     -0.000018     -0.000409      0.000000
    820 Si    c       0.000320     -0.000715     -0.000908      0.000000
    821 Si    c       0.001991      0.001932      0.000632      0.000000
    822 Si    c       0.000158      0.000964     -0.000415      0.000000
    823 Si    c       0.000290     -0.000949     -0.002003      0.000000
    824 Si    c      -0.000398     -0.000217     -0.000873      0.000000
    825 Si    c       0.001121      0.000980     -0.000547      0.000000
    826 Si    c       0.001851      0.000806      0.000661      0.000000
    827 Si    c      -0.001444      0.000833     -0.001552      0.000000
    828 Si    c       0.002375     -0.000473     -0.000769      0.000000
    829 Si    c       0.001085     -0.001449     -0.001999      0.000000
    830 Si    c       0.000048      0.002407     -0.000210      0.000000
    831 Si    c       0.002294      0.000052      0.000392      0.000000
    832 Si    c       0.000927      0.003207      0.000802      0.000000
    833 Si    c       0.002397     -0.002475     -0.000378      0.000000
    834 Si    c       0.002029      0.002364     -0.001221      0.000000
    835 Si    c       0.003064      0.001742      0.001274      0.000000
    836 Si    c      -0.000495      0.000780     -0.001464      0.000000
    837 Si    c      -0.000532      0.001778     -0.000905      0.000000
    838 Si    c       0.003265     -0.000894     -0.000422      0.000000
    839 Si    c       0.003781     -0.001348      0.000072      0.000000
    840 Si    c      -0.000169     -0.000861      0.000776      0.000000
    841 Si    c       0.000491     -0.000988      0.001200      0.000000
    842 Si    c       0.001052      0.001666      0.000164      0.000000
    843 Si    c       0.000235     -0.000199     -0.001055      0.000000
    844 Si    c       0.003322     -0.000019      0.000622      0.000000
    845 Si    c       0.001006     -0.000334      0.000584      0.000000
    846 Si    c      -0.000336      0.001930     -0.001894      0.000000
    847 Si    c       0.001310     -0.000714      0.001255      0.000000
    848 Si    c       0.000639     -0.000475      0.000255      0.000000
    849 Si    c      -0.000116      0.000632     -0.001313      0.000000
    850 Si    c       0.000841     -0.000965     -0.001696      0.000000
    851 Si    c       0.001746      0.000187      0.000643      0.000000
    852 Si    c       0.001102     -0.001685     -0.003100      0.000000
    853 Si    c       0.001160     -0.000720     -0.000508      0.000000
    854 Si    c      -0.001027      0.000121     -0.001401      0.000000
    855 Si    c       0.002082      0.000640      0.000061      0.000000
    856 Si    c       0.002101      0.001029     -0.001938      0.000000
    857 Si    c       0.000890     -0.001026      0.000889      0.000000
    858 Si    c       0.000424     -0.000536     -0.000773      0.000000
    859 Si    c       0.002270      0.000700     -0.002109      0.000000
    860 Si    c       0.001299     -0.000689     -0.000555      0.000000
    861 Si    c       0.000672     -0.000337     -0.001871      0.000000
    862 Si    c       0.001157     -0.000864     -0.000555      0.000000
    863 Si    c       0.000267      0.001905     -0.001692      0.000000
    864 Si    c       0.003374     -0.001779     -0.001182      0.000000
    865 Si    c       0.001586     -0.000027     -0.001290      0.000000
    866 Si    c       0.000709     -0.000399     -0.001809      0.000000
    867 Si    c       0.000646     -0.000888      0.000162      0.000000
    868 Si    c       0.000616      0.000577      0.001755      0.000000
    869 Si    c       0.001507      0.000269     -0.000157      0.000000
    870 Si    c       0.000976      0.002716     -0.000709      0.000000
    871 Si    c       0.001424      0.002274     -0.000597      0.000000
    872 Si    c       0.000007      0.000039      0.000641      0.000000
    873 Si    c       0.000873     -0.000051     -0.001403      0.000000
    874 Si    c       0.002480     -0.001169     -0.000439      0.000000
    875 Si    c      -0.001093     -0.001173      0.001307      0.000000
    876 Si    c       0.001447     -0.000088     -0.000078      0.000000
    877 Si    c      -0.001845      0.002027      0.001997      0.000000
    878 Si    c       0.001524     -0.000329      0.000044      0.000000
    879 Si    c       0.000038     -0.000775     -0.000497      0.000000
    880 Si    c       0.001489      0.000961     -0.000822      0.000000
    881 Si    c       0.001110      0.000865      0.000749      0.000000
    882 Si    c       0.001079     -0.001709     -0.000180      0.000000
    883 Si    c      -0.003687      0.000151     -0.001667      0.000000
    884 Si    c       0.001125      0.000772      0.001011      0.000000
    885 Si    c      -0.000142      0.002452     -0.001254      0.000000
    886 Si    c       0.000081      0.000832     -0.000919      0.000000
    887 Si    c       0.000537      0.000947      0.001076      0.000000
    888 Si    c       0.002934      0.001506      0.000692      0.000000
    889 Si    c      -0.000947      0.000910      0.000528      0.000000
    890 Si    c       0.001036     -0.001014     -0.001866      0.000000
    891 Si    c       0.001194     -0.000244     -0.001045      0.000000
    892 Si    c       0.000733      0.000293     -0.000251      0.000000
    893 Si    c       0.001835      0.001179     -0.001510      0.000000
    894 Si    c       0.000723      0.000389     -0.000648      0.000000
    895 Si    c       0.001013      0.002310     -0.000693      0.000000
    896 Si    c       0.001161     -0.001996     -0.000046      0.000000
    897 Si    c       0.000951      0.001097      0.000789      0.000000
    898 Si    c       0.000238     -0.000313      0.000935      0.000000
    899 Si    c       0.002509     -0.000427     -0.000278      0.000000
    900 Si    c      -0.000263     -0.001329      0.001321      0.000000
    901 Si    c       0.001271      0.001225      0.001772      0.000000
    902 Si    c       0.001521      0.001300     -0.001569      0.000000
    903 Si    c       0.000920      0.001768      0.000407      0.000000
    904 Si    c       0.000757     -0.000163      0.000157      0.000000
    905 Si    c       0.000364      0.000797      0.002575      0.000000
    906 Si    c       0.000459     -0.000330     -0.001707      0.000000
    907 Si    c       0.001517      0.000145      0.001322      0.000000
    908 Si    c       0.000425      0.000555     -0.000162      0.000000
    909 Si    c       0.001118     -0.000924     -0.001407      0.000000
    910 Si    c       0.001530     -0.000364     -0.001746      0.000000
    911 Si    c      -0.000555     -0.000959     -0.001415      0.000000
    912 Si    c       0.001031      0.001000      0.001640      0.000000
    913 Si    c       0.001826     -0.000696      0.003595      0.000000
    914 Si    c       0.001119      0.001695      0.002343      0.000000
    915 Si    c       0.000371     -0.000819     -0.000674      0.000000
    916 Si    c      -0.000819     -0.000562     -0.002063      0.000000
    917 Si    c      -0.000124      0.000207     -0.000157      0.000000
    918 Si    c       0.001770      0.000090     -0.000440      0.000000
    919 Si    c       0.003082      0.000725      0.001994      0.000000
    920 Si    c       0.000568      0.001202     -0.001265      0.000000
    921 Si    c       0.000065     -0.000222      0.000711      0.000000
    922 Si    c       0.002743      0.000708     -0.002856      0.000000
    923 Si    c       0.001162      0.001692     -0.000899      0.000000
    924 Si    c       0.002324     -0.000467     -0.000689      0.000000
    925 Si    c       0.002033      0.000963      0.001916      0.000000
    926 Si    c      -0.000426      0.000738     -0.001246      0.000000
    927 Si    c       0.000990     -0.000390     -0.001060      0.000000
    928 Si    c      -0.000986      0.001176      0.000000      0.000000
    929 Si    c       0.001296     -0.000252     -0.000218      0.000000
    930 Si    c       0.000596     -0.000252     -0.000759      0.000000
    931 Si    c       0.001496      0.001341      0.000017      0.000000
    932 Si    c       0.001613      0.000537     -0.000753      0.000000
    933 Si    c       0.003440      0.002549      0.001301      0.000000
    934 Si    c       0.000845      0.002035      0.000073      0.000000
    935 Si    c       0.003436      0.001087      0.001662      0.000000
    936 Si    c       0.000329     -0.002545     -0.000413      0.000000
    937 Si    c       0.000861     -0.000159     -0.000402      0.000000
    938 Si    c       0.001310     -0.000923      0.001232      0.000000
    939 Si    c       0.001789      0.001144     -0.002147      0.000000
    940 Si    c       0.002344      0.000577      0.000369      0.000000
    941 Si    c       0.001072      0.000596     -0.000103      0.000000
    942 Si    c       0.002156      0.001953     -0.000372      0.000000
    943 Si    c      -0.000830     -0.000915     -0.001557      0.000000
    944 Si    c       0.000858     -0.000976      0.000469      0.000000
    945 Si    c       0.002654     -0.000090      0.000726      0.000000
    946 Si    c      -0.000286     -0.001626     -0.000864      0.000000
    947 Si    c      -0.000320      0.001132      0.000324      0.000000
    948 Si    c       0.001101      0.000174     -0.000962      0.000000
    949 Si    c       0.000234      0.000353     -0.002759      0.000000
    950 Si    c       0.002270     -0.000126     -0.000610      0.000000
    951 Si    c       0.003437      0.000149     -0.000129      0.000000
    952 Si    c       0.000871     -0.000765     -0.000023      0.000000
    953 Si    c       0.000989     -0.001361     -0.000881      0.000000
    954 Si    c       0.001729      0.002059     -0.000769      0.000000
    955 Si    c       0.002263     -0.000088      0.000265      0.000000
    956 Si    c       0.002912      0.001048     -0.001680      0.000000
    957 Si    c       0.001414      0.000647     -0.000830      0.000000
    958 Si    c       0.001624     -0.000149      0.004146      0.000000
    959 Si    c      -0.000644     -0.000580      0.001884      0.000000
    960 Si    c       0.001889     -0.001202      0.000162      0.000000
    961 Si    c       0.001164      0.000816     -0.000004      0.000000
    962 Si    c       0.001675     -0.001164      0.000464      0.000000
    963 Si    c       0.000587     -0.000162      0.001630      0.000000
    964 Si    c       0.001211      0.001052     -0.000349      0.000000
    965 Si    c      -0.001490     -0.000975      0.000093      0.000000
    966 Si    c       0.001810     -0.000339      0.000810      0.000000
    967 Si    c      -0.000034      0.002244      0.000016      0.000000
    968 Si    c       0.000490     -0.000214      0.000401      0.000000
    969 Si    c       0.002371      0.000222     -0.000819      0.000000
    970 Si    c       0.004140      0.001206      0.000240      0.000000
    971 Si    c       0.002288      0.000583      0.000315      0.000000
    972 Si    c      -0.000615     -0.000335      0.001075      0.000000
    973 Si    c       0.002444      0.000530      0.000245      0.000000
    974 Si    c       0.001517      0.000044     -0.000567      0.000000
    975 Si    c       0.001200      0.000579     -0.001445      0.000000
    976 Si    c       0.001909     -0.001301      0.001109      0.000000
    977 Si    c       0.001420      0.001162      0.000110      0.000000
    978 Si    c       0.002611      0.000571     -0.000530      0.000000
    979 Si    c       0.001118      0.000669     -0.001104      0.000000
    980 Si    c       0.000569     -0.000581      0.000398      0.000000
    981 Si    c      -0.001922      0.002382      0.001037      0.000000
    982 Si    c       0.000504      0.001179     -0.000255      0.000000
    983 Si    c       0.000214      0.000018     -0.000514      0.000000
    984 Si    c      -0.001584     -0.000137     -0.000449      0.000000
    985 Si    c       0.000089      0.002490      0.000782      0.000000
    986 Si    c      -0.001866      0.000462     -0.000960      0.000000
    987 Si    c       0.000372     -0.000489     -0.000384      0.000000
    988 Si    c      -0.000270      0.001285     -0.000253      0.000000
    989 Si    c       0.000617      0.000597      0.000116      0.000000
    990 Si    c       0.001312      0.001898      0.001037      0.000000
    991 Si    c      -0.003191     -0.001483      0.000887      0.000000
    992 Si    c      -0.000543      0.002106     -0.000349      0.000000
    993 Si    c       0.002705      0.000496     -0.000546      0.000000
    994 Si    c       0.001497     -0.000197     -0.000658      0.000000
    995 Si    c       0.001194      0.000959     -0.000658      0.000000
    996 Si    c       0.001990     -0.001327      0.000300      0.000000
    997 Si    c       0.000020     -0.000872     -0.000503      0.000000
    998 Si    c       0.002764     -0.000797     -0.001665      0.000000
    999 Si    c      -0.000149     -0.001259      0.000413      0.000000
   1000 Si    c       0.001748     -0.001506     -0.000414      0.000000
--------------------------------------------------------------------------------
  Maximum abs         0.007133      0.008857      0.007325      0.000000
--------------------------------------------------------------------------------


  Time to end of properties =     252.9606 seconds


  Peak dynamic memory used =     150.07 MB 


  Timing analysis for GULP :

--------------------------------------------------------------------------------
  Task / Subroutine                                          Time (Seconds)
--------------------------------------------------------------------------------
  Calculation of real space energy and derivatives                0.2857
  Calculation of three-body energy and derivatives                3.9309
  Calculation of phonons                                        241.8407
--------------------------------------------------------------------------------
  Total CPU time                                                252.9607
--------------------------------------------------------------------------------


  Dump file written as example51.res


  Job Finished at 11:54.55  8th July       2020                               

