********************************************************************************
*                       GENERAL UTILITY LATTICE PROGRAM                        *
*                                 Julian Gale                                  *
*                       Curtin Institute for Computation                       *
*                    School of Molecular and Life Sciences                     *
*                    Curtin University, Western Australia                      *
********************************************************************************
* Version = 6.0.0 * Last modified =   7th July 2020                            *
********************************************************************************
*  optimise     - perform optimisation run                                     *
*  conp         - constant pressure calculation                                *
*  property     - calculate properties for final geometry                      *
*  phonon       - calculate phonons for final geometry                         *
*  molecule     - molecule option activated, Coulomb subtract within molecule  *
*  fix_molecule - fix atoms of molecule as at the start of the run             *
*  rigid        - molecules will be treated as rigid bodies                    *
********************************************************************************

  Job Started  at 12:01.19  8th July       2020                               

  Number of CPUs =     1

  Host name      = M-A0034725                              


  Total number of configurations input =      1

********************************************************************************
*  Input for Configuration =   1                                               *
********************************************************************************

  Formula = C64H72N8O16                                                 

  Number of irreducible atoms/shells =      20


  Total number atoms/shells =     160

  Dimensionality = 3               :  Bulk   


  Symmetry :

  Crystal family                   :  Orthorhombic
  Crystal class  (Groth - 1921)    :  Orthorhombic Bipyramidal             

  Space group (centrosymmetric)    :  P C A B         

  Non-standard setting of group    :  P B C A         

  Patterson group                  :  P m m m  

  Cartesian lattice vectors (Angstroms) :

        6.977547    0.000000    0.000000
        0.000000   12.074138    0.000000
        0.000000    0.000000   17.043402

  Cell parameters (Angstroms/Degrees):

  a =       6.9775    alpha =  90.0000
  b =      12.0741    beta  =  90.0000
  c =      17.0434    gamma =  90.0000

  Initial cell volume =        1435.870237 Angs**3

  Temperature of configuration =   0.00     K 

  Pressure of configuration =         0.000 GPa 

  Fractional coordinates of asymmetric unit :

--------------------------------------------------------------------------------
   No.  Atomic       x           y          z         Charge      Occupancy
        Label      (Frac)      (Frac)     (Frac)        (e)         (Frac)  
--------------------------------------------------------------------------------
      1 C1    c    0.221880    0.446994    0.660204     0.13060    1.000000    
      2 C1    c    0.299120    0.340247    0.658508    -0.16010    1.000000    
      3 C1    c    0.149030    0.488321    0.730367    -0.16010    1.000000    
      4 C1    c    0.303193    0.276270    0.726835    -0.24990    1.000000    
      5 C1    c    0.154261    0.424499    0.798450    -0.24990    1.000000    
      6 C1    c    0.233396    0.319111    0.796956     0.28990    1.000000    
      7 C2    c    0.239778    0.500838    0.517818     0.71620    1.000000    
      8 C3    c    0.225352    0.603165    0.469041    -0.50970    1.000000    
      9 H1    c    0.360165    0.306931    0.605002     0.15360    1.000000    
     10 H1    c    0.089189    0.571420    0.732187     0.15360    1.000000    
     11 H1    c    0.364882    0.193737    0.725998     0.17030    1.000000    
     12 H1    c    0.095474    0.457053    0.852582     0.17030    1.000000    
     13 H2    c    0.108220    0.654970    0.490157     0.14230    1.000000    
     14 H2    c    0.196971    0.581723    0.408090     0.14230    1.000000    
     15 H2    c    0.358501    0.649891    0.473151     0.14230    1.000000    
     16 H3    c    0.202967    0.600611    0.609456     0.23850    1.000000    
     17 H4    c    0.227130    0.312169    0.908273     0.35750    1.000000    
     18 N     c    0.221520    0.520352    0.594731    -0.43690    1.000000    
     19 O1    c    0.245333    0.259899    0.864289    -0.50750    1.000000    
     20 O2    c    0.263202    0.410068    0.488855    -0.53330    1.000000    
--------------------------------------------------------------------------------



  Molecule list generated from bond lengths :

  Total number of molecules =     8

--------------------------------------------------------------------------------
Molecule No./:  Atoms
Periodicity  :  
--------------------------------------------------------------------------------
     1  0    : C1   c     1 C1   c     9 C1   c    17 C1   c    25 C1   c    33
             : C1   c    41 C2   c    49 C3   c    57 H1   c    65 H1   c    73
             : H1   c    81 H1   c    89 H2   c    97 H2   c   105 H2   c   113
             : H3   c   121 H4   c   129 N    c   137 O1   c   145 O2   c   153
     2  0    : C1   c     2 C1   c    10 C1   c    18 C1   c    26 C1   c    34
             : C1   c    42 C2   c    50 C3   c    58 H1   c    66 H1   c    74
             : H1   c    82 H1   c    90 H2   c    98 H2   c   106 H2   c   114
             : H3   c   122 H4   c   130 N    c   138 O1   c   146 O2   c   154
     3  0    : C1   c     3 C1   c    11 C1   c    19 C1   c    27 C1   c    35
             : C1   c    43 C2   c    51 C3   c    59 H1   c    67 H1   c    75
             : H1   c    83 H1   c    91 H2   c    99 H2   c   107 H2   c   115
             : H3   c   123 H4   c   131 N    c   139 O1   c   147 O2   c   155
     4  0    : C1   c     4 C1   c    12 C1   c    20 C1   c    28 C1   c    36
             : C1   c    44 C2   c    52 C3   c    60 H1   c    68 H1   c    76
             : H1   c    84 H1   c    92 H2   c   100 H2   c   108 H2   c   116
             : H3   c   124 H4   c   132 N    c   140 O1   c   148 O2   c   156
     5  0    : C1   c     5 C1   c    13 C1   c    21 C1   c    29 C1   c    37
             : C1   c    45 C2   c    53 C3   c    61 H1   c    69 H1   c    77
             : H1   c    85 H1   c    93 H2   c   101 H2   c   109 H2   c   117
             : H3   c   125 H4   c   133 N    c   141 O1   c   149 O2   c   157
     6  0    : C1   c     6 C1   c    14 C1   c    22 C1   c    30 C1   c    38
             : C1   c    46 C2   c    54 C3   c    62 H1   c    70 H1   c    78
             : H1   c    86 H1   c    94 H2   c   102 H2   c   110 H2   c   118
             : H3   c   126 H4   c   134 N    c   142 O1   c   150 O2   c   158
     7  0    : C1   c     7 C1   c    15 C1   c    23 C1   c    31 C1   c    39
             : C1   c    47 C2   c    55 C3   c    63 H1   c    71 H1   c    79
             : H1   c    87 H1   c    95 H2   c   103 H2   c   111 H2   c   119
             : H3   c   127 H4   c   135 N    c   143 O1   c   151 O2   c   159
     8  0    : C1   c     8 C1   c    16 C1   c    24 C1   c    32 C1   c    40
             : C1   c    48 C2   c    56 C3   c    64 H1   c    72 H1   c    80
             : H1   c    88 H1   c    96 H2   c   104 H2   c   112 H2   c   120
             : H3   c   128 H4   c   136 N    c   144 O1   c   152 O2   c   160
--------------------------------------------------------------------------------

  Brillouin zone sampling points :

--------------------------------------------------------------------------------
  Point number          x          y          z            Weight
--------------------------------------------------------------------------------
        1           0.000000   0.000000   0.000000     1.00000000
--------------------------------------------------------------------------------


********************************************************************************
*  General input information                                                   *
********************************************************************************

  Species output for all configurations : 

--------------------------------------------------------------------------------
  Species    Type    Atomic    Atomic    Charge       Radii (Angs)     Library
                     Number     Mass       (e)     Cova   Ionic  VDW   Symbol
--------------------------------------------------------------------------------
    C1       Core        6      12.01   0.130600   0.770  0.000  1.530          
    C2       Core        6      12.01   0.716200   0.770  0.000  1.530          
    C3       Core        6      12.01  -0.509700   0.770  0.000  1.530          
    H1       Core        1       1.01   0.153600   0.370  0.000  1.080          
    H2       Core        1       1.01   0.142300   0.370  0.000  1.080          
    H3       Core        1       1.01   0.238500   0.370  0.000  1.080          
    H4       Core        1       1.01   0.357500   0.370  0.000  1.080          
    N        Core        7      14.01  -0.436900   0.750  0.000  1.480          
    O1       Core        8      16.00  -0.507500   0.730  0.000  1.360          
    O2       Core        8      16.00  -0.533300   0.730  0.000  1.360          
    X        Core      107       0.00   0.000000   0.000  0.000  0.000          
--------------------------------------------------------------------------------


  Lattice summation method               =    Ewald          (3-D)
                                         =    Parry          (2-D)
                                         =    Saunders et al (1-D)
  Accuracy factor for lattice sums       =   12.000


  Analytic derivatives to be used

  Time limit = Infinity

  Maximum range for interatomic potentials =        10.000000 Angstroms

  Taper potentials to zero over   2.0000 Angstroms using M-D-F

  General interatomic potentials :

--------------------------------------------------------------------------------
Atom  Types   Potential      Parameter       Value         Units   Cutoffs(Ang)
  1     2                                                            Min /  Max 
--------------------------------------------------------------------------------
O2   c O2   c Lenn/es       Lennard epsilon 0.91065307E-02eV        3Bond 10.000
                            Lennard sigma/m  3.3224000    Ang       
                            Exponent m        12          None
                            Exponent n         6          None
--------------------------------------------------------------------------------
C2   c O2   c Lenn/es       Lennard epsilon 0.58276376E-02eV        3Bond 10.000
                            Lennard sigma/m  3.5692000    Ang       
                            Exponent m        12          None
                            Exponent n         6          None
--------------------------------------------------------------------------------
C2   c C2   c Lenn/es       Lennard epsilon 0.37293412E-02eV        3Bond 10.000
                            Lennard sigma/m  3.8160000    Ang       
                            Exponent m        12          None
                            Exponent n         6          None
--------------------------------------------------------------------------------
C3   c O2   c Lenn/es       Lennard epsilon 0.65728235E-02eV        3Bond 10.000
                            Lennard sigma/m  3.5692000    Ang       
                            Exponent m        12          None
                            Exponent n         6          None
--------------------------------------------------------------------------------
C2   c C3   c Lenn/es       Lennard epsilon 0.42062158E-02eV        3Bond 10.000
                            Lennard sigma/m  3.8160000    Ang       
                            Exponent m        12          None
                            Exponent n         6          None
--------------------------------------------------------------------------------
C3   c C3   c Lenn/es       Lennard epsilon 0.47440689E-02eV        3Bond 10.000
                            Lennard sigma/m  3.8160000    Ang       
                            Exponent m        12          None
                            Exponent n         6          None
--------------------------------------------------------------------------------
H2   c O2   c Lenn/es       Lennard epsilon 0.24899644E-02eV        3Bond 10.000
                            Lennard sigma/m  3.1482000    Ang       
                            Exponent m        12          None
                            Exponent n         6          None
--------------------------------------------------------------------------------
H2   c C2   c Lenn/es       Lennard epsilon 0.15934290E-02eV        3Bond 10.000
                            Lennard sigma/m  3.3950000    Ang       
                            Exponent m        12          None
                            Exponent n         6          None
--------------------------------------------------------------------------------
H2   c C3   c Lenn/es       Lennard epsilon 0.17971824E-02eV        3Bond 10.000
                            Lennard sigma/m  3.3950000    Ang       
                            Exponent m        12          None
                            Exponent n         6          None
--------------------------------------------------------------------------------
H2   c H2   c Lenn/es       Lennard epsilon 0.68082158E-03eV        3Bond 10.000
                            Lennard sigma/m  2.9740000    Ang       
                            Exponent m        12          None
                            Exponent n         6          None
--------------------------------------------------------------------------------
N    c O2   c Lenn/es       Lennard epsilon 0.81934682E-02eV        3Bond 10.000
                            Lennard sigma/m  3.4852000    Ang       
                            Exponent m        12          None
                            Exponent n         6          None
--------------------------------------------------------------------------------
C2   c N    c Lenn/es       Lennard epsilon 0.52433319E-02eV        3Bond 10.000
                            Lennard sigma/m  3.7320000    Ang       
                            Exponent m        12          None
                            Exponent n         6          None
--------------------------------------------------------------------------------
C3   c N    c Lenn/es       Lennard epsilon 0.59138021E-02eV        3Bond 10.000
                            Lennard sigma/m  3.7320000    Ang       
                            Exponent m        12          None
                            Exponent n         6          None
--------------------------------------------------------------------------------
H2   c N    c Lenn/es       Lennard epsilon 0.22403091E-02eV        3Bond 10.000
                            Lennard sigma/m  3.3110000    Ang       
                            Exponent m        12          None
                            Exponent n         6          None
--------------------------------------------------------------------------------
N    c N    c Lenn/es       Lennard epsilon 0.73719534E-02eV        3Bond 10.000
                            Lennard sigma/m  3.6480000    Ang       
                            Exponent m        12          None
                            Exponent n         6          None
--------------------------------------------------------------------------------
H3   c O2   c Lenn/es       Lennard epsilon 0.24899644E-02eV        3Bond 10.000
                            Lennard sigma/m  2.2612000    Ang       
                            Exponent m        12          None
                            Exponent n         6          None
--------------------------------------------------------------------------------
H3   c C2   c Lenn/es       Lennard epsilon 0.15934290E-02eV        3Bond 10.000
                            Lennard sigma/m  2.5080000    Ang       
                            Exponent m        12          None
                            Exponent n         6          None
--------------------------------------------------------------------------------
H3   c C3   c Lenn/es       Lennard epsilon 0.17971824E-02eV        3Bond 10.000
                            Lennard sigma/m  2.5080000    Ang       
                            Exponent m        12          None
                            Exponent n         6          None
--------------------------------------------------------------------------------
H2   c H3   c Lenn/es       Lennard epsilon 0.68082158E-03eV        3Bond 10.000
                            Lennard sigma/m  2.0870000    Ang       
                            Exponent m        12          None
                            Exponent n         6          None
--------------------------------------------------------------------------------
H3   c N    c Lenn/es       Lennard epsilon 0.22403091E-02eV        3Bond 10.000
                            Lennard sigma/m  2.4240000    Ang       
                            Exponent m        12          None
                            Exponent n         6          None
--------------------------------------------------------------------------------
H3   c H3   c Lenn/es       Lennard epsilon 0.68082158E-03eV        3Bond 10.000
                            Lennard sigma/m  1.2000000    Ang       
                            Exponent m        12          None
                            Exponent n         6          None
--------------------------------------------------------------------------------
C1   c O2   c Lenn/es       Lennard epsilon 0.58276376E-02eV        3Bond 10.000
                            Lennard sigma/m  3.5692000    Ang       
                            Exponent m        12          None
                            Exponent n         6          None
--------------------------------------------------------------------------------
C1   c C2   c Lenn/es       Lennard epsilon 0.37293412E-02eV        3Bond 10.000
                            Lennard sigma/m  3.8160000    Ang       
                            Exponent m        12          None
                            Exponent n         6          None
--------------------------------------------------------------------------------
C1   c C3   c Lenn/es       Lennard epsilon 0.42062158E-02eV        3Bond 10.000
                            Lennard sigma/m  3.8160000    Ang       
                            Exponent m        12          None
                            Exponent n         6          None
--------------------------------------------------------------------------------
H2   c C1   c Lenn/es       Lennard epsilon 0.15934290E-02eV        3Bond 10.000
                            Lennard sigma/m  3.3950000    Ang       
                            Exponent m        12          None
                            Exponent n         6          None
--------------------------------------------------------------------------------
C1   c N    c Lenn/es       Lennard epsilon 0.52433319E-02eV        3Bond 10.000
                            Lennard sigma/m  3.7320000    Ang       
                            Exponent m        12          None
                            Exponent n         6          None
--------------------------------------------------------------------------------
H3   c C1   c Lenn/es       Lennard epsilon 0.15934290E-02eV        3Bond 10.000
                            Lennard sigma/m  2.5080000    Ang       
                            Exponent m        12          None
                            Exponent n         6          None
--------------------------------------------------------------------------------
C1   c C1   c Lenn/es       Lennard epsilon 0.37293412E-02eV        3Bond 10.000
                            Lennard sigma/m  3.8160000    Ang       
                            Exponent m        12          None
                            Exponent n         6          None
--------------------------------------------------------------------------------
H1   c O2   c Lenn/es       Lennard epsilon 0.24338227E-02eV        3Bond 10.000
                            Lennard sigma/m  3.1202000    Ang       
                            Exponent m        12          None
                            Exponent n         6          None
--------------------------------------------------------------------------------
H1   c C2   c Lenn/es       Lennard epsilon 0.15575017E-02eV        3Bond 10.000
                            Lennard sigma/m  3.3670000    Ang       
                            Exponent m        12          None
                            Exponent n         6          None
--------------------------------------------------------------------------------
H1   c C3   c Lenn/es       Lennard epsilon 0.17566610E-02eV        3Bond 10.000
                            Lennard sigma/m  3.3670000    Ang       
                            Exponent m        12          None
                            Exponent n         6          None
--------------------------------------------------------------------------------
H1   c H2   c Lenn/es       Lennard epsilon 0.66547098E-03eV        3Bond 10.000
                            Lennard sigma/m  2.9460000    Ang       
                            Exponent m        12          None
                            Exponent n         6          None
--------------------------------------------------------------------------------
H1   c N    c Lenn/es       Lennard epsilon 0.21897965E-02eV        3Bond 10.000
                            Lennard sigma/m  3.2830000    Ang       
                            Exponent m        12          None
                            Exponent n         6          None
--------------------------------------------------------------------------------
H1   c H3   c Lenn/es       Lennard epsilon 0.66547098E-03eV        3Bond 10.000
                            Lennard sigma/m  2.0590000    Ang       
                            Exponent m        12          None
                            Exponent n         6          None
--------------------------------------------------------------------------------
H1   c C1   c Lenn/es       Lennard epsilon 0.15575017E-02eV        3Bond 10.000
                            Lennard sigma/m  3.3670000    Ang       
                            Exponent m        12          None
                            Exponent n         6          None
--------------------------------------------------------------------------------
H1   c H1   c Lenn/es       Lennard epsilon 0.65046648E-03eV        3Bond 10.000
                            Lennard sigma/m  2.9180000    Ang       
                            Exponent m        12          None
                            Exponent n         6          None
--------------------------------------------------------------------------------
O1   c O2   c Lenn/es       Lennard epsilon 0.91151995E-02eV        3Bond 10.000
                            Lennard sigma/m  3.3822000    Ang       
                            Exponent m        12          None
                            Exponent n         6          None
--------------------------------------------------------------------------------
C2   c O1   c Lenn/es       Lennard epsilon 0.58331851E-02eV        3Bond 10.000
                            Lennard sigma/m  3.6290000    Ang       
                            Exponent m        12          None
                            Exponent n         6          None
--------------------------------------------------------------------------------
C3   c O1   c Lenn/es       Lennard epsilon 0.65790804E-02eV        3Bond 10.000
                            Lennard sigma/m  3.6290000    Ang       
                            Exponent m        12          None
                            Exponent n         6          None
--------------------------------------------------------------------------------
H2   c O1   c Lenn/es       Lennard epsilon 0.24923347E-02eV        3Bond 10.000
                            Lennard sigma/m  3.2080000    Ang       
                            Exponent m        12          None
                            Exponent n         6          None
--------------------------------------------------------------------------------
N    c O1   c Lenn/es       Lennard epsilon 0.82012678E-02eV        3Bond 10.000
                            Lennard sigma/m  3.5450000    Ang       
                            Exponent m        12          None
                            Exponent n         6          None
--------------------------------------------------------------------------------
H3   c O1   c Lenn/es       Lennard epsilon 0.24923347E-02eV        3Bond 10.000
                            Lennard sigma/m  2.3210000    Ang       
                            Exponent m        12          None
                            Exponent n         6          None
--------------------------------------------------------------------------------
C1   c O1   c Lenn/es       Lennard epsilon 0.58331851E-02eV        3Bond 10.000
                            Lennard sigma/m  3.6290000    Ang       
                            Exponent m        12          None
                            Exponent n         6          None
--------------------------------------------------------------------------------
H1   c O1   c Lenn/es       Lennard epsilon 0.24361395E-02eV        3Bond 10.000
                            Lennard sigma/m  3.1800000    Ang       
                            Exponent m        12          None
                            Exponent n         6          None
--------------------------------------------------------------------------------
O1   c O1   c Lenn/es       Lennard epsilon 0.91238765E-02eV        3Bond 10.000
                            Lennard sigma/m  3.4420000    Ang       
                            Exponent m        12          None
                            Exponent n         6          None
--------------------------------------------------------------------------------
H4   c O2   c Lenn/es       Lennard epsilon  0.0000000    eV        3Bond 10.000
                            Lennard sigma/m  1.6612000    Ang       
                            Exponent m        12          None
                            Exponent n         6          None
--------------------------------------------------------------------------------
H4   c C2   c Lenn/es       Lennard epsilon  0.0000000    eV        3Bond 10.000
                            Lennard sigma/m  1.9080000    Ang       
                            Exponent m        12          None
                            Exponent n         6          None
--------------------------------------------------------------------------------
H4   c C3   c Lenn/es       Lennard epsilon  0.0000000    eV        3Bond 10.000
                            Lennard sigma/m  1.9080000    Ang       
                            Exponent m        12          None
                            Exponent n         6          None
--------------------------------------------------------------------------------
H2   c H4   c Lenn/es       Lennard epsilon  0.0000000    eV        3Bond 10.000
                            Lennard sigma/m  1.4870000    Ang       
                            Exponent m        12          None
                            Exponent n         6          None
--------------------------------------------------------------------------------
H4   c N    c Lenn/es       Lennard epsilon  0.0000000    eV        3Bond 10.000
                            Lennard sigma/m  1.8240000    Ang       
                            Exponent m        12          None
                            Exponent n         6          None
--------------------------------------------------------------------------------
H3   c H4   c Lenn/es       Lennard epsilon  0.0000000    eV        3Bond 10.000
                            Lennard sigma/m 0.60000000    Ang       
                            Exponent m        12          None
                            Exponent n         6          None
--------------------------------------------------------------------------------
H4   c C1   c Lenn/es       Lennard epsilon  0.0000000    eV        3Bond 10.000
                            Lennard sigma/m  1.9080000    Ang       
                            Exponent m        12          None
                            Exponent n         6          None
--------------------------------------------------------------------------------
H1   c H4   c Lenn/es       Lennard epsilon  0.0000000    eV        3Bond 10.000
                            Lennard sigma/m  1.4590000    Ang       
                            Exponent m        12          None
                            Exponent n         6          None
--------------------------------------------------------------------------------
H4   c O1   c Lenn/es       Lennard epsilon  0.0000000    eV        3Bond 10.000
                            Lennard sigma/m  1.7210000    Ang       
                            Exponent m        12          None
                            Exponent n         6          None
--------------------------------------------------------------------------------
H4   c H4   c Lenn/es       Lennard epsilon  0.0000000    eV        3Bond 10.000
                            Lennard sigma/m  0.0000000    Ang       
                            Exponent m        12          None
                            Exponent n         6          None
--------------------------------------------------------------------------------

  Intramolecular potentials :

--------------------------------------------------------------------------------
Atom  Types   Potential      Parameter       Value         Units   Cutoffs(Ang)
  1     2                                                            Min /  Max 
--------------------------------------------------------------------------------
X    c X    c Coulomb_sub   Coulomb sub      1.0000000    None      1-4only 7.00
--------------------------------------------------------------------------------
C2   c O2   c Harmonic      Harmonic k2      56.200304    eV*Ang^-2 0.000 1 Bond
                            Harmonic r0      1.2140000    Ang       
                            Harmonic k3      0.0000000    eV*Ang^-3 
                            Harmonic k4      0.0000000    eV*Ang^-4 
--------------------------------------------------------------------------------
C2   c C3   c Harmonic      Harmonic k2      28.473086    eV*Ang^-2 0.000 1 Bond
                            Harmonic r0      1.5080000    Ang       
                            Harmonic k3      0.0000000    eV*Ang^-3 
                            Harmonic k4      0.0000000    eV*Ang^-4 
--------------------------------------------------------------------------------
C2   c N    c Harmonic      Harmonic k2      41.473743    eV*Ang^-2 0.000 1 Bond
                            Harmonic r0      1.3450000    Ang       
                            Harmonic k3      0.0000000    eV*Ang^-3 
                            Harmonic k4      0.0000000    eV*Ang^-4 
--------------------------------------------------------------------------------
C1   c N    c Harmonic      Harmonic k2      32.289156    eV*Ang^-2 0.000 1 Bond
                            Harmonic r0      1.4220000    Ang       
                            Harmonic k3      0.0000000    eV*Ang^-3 
                            Harmonic k4      0.0000000    eV*Ang^-4 
--------------------------------------------------------------------------------
C1   c C1   c Harmonic      Harmonic k2      41.491089    eV*Ang^-2 0.000 1 Bond
                            Harmonic r0      1.3870000    Ang       
                            Harmonic k3      0.0000000    eV*Ang^-3 
                            Harmonic k4      0.0000000    eV*Ang^-4 
--------------------------------------------------------------------------------
C1   c O1   c Harmonic      Harmonic k2      33.486014    eV*Ang^-2 0.000 1 Bond
                            Harmonic r0      1.3620000    Ang       
                            Harmonic k3      0.0000000    eV*Ang^-3 
                            Harmonic k4      0.0000000    eV*Ang^-4 
--------------------------------------------------------------------------------
H2   c C3   c Harmonic      Harmonic k2      29.253646    eV*Ang^-2 0.000 1 Bond
                            Harmonic r0      1.0920000    Ang       
                            Harmonic k3      0.0000000    eV*Ang^-3 
                            Harmonic k4      0.0000000    eV*Ang^-4 
--------------------------------------------------------------------------------
H3   c N    c Harmonic      Harmonic k2      35.576180    eV*Ang^-2 0.000 1 Bond
                            Harmonic r0      1.0090000    Ang       
                            Harmonic k3      0.0000000    eV*Ang^-3 
                            Harmonic k4      0.0000000    eV*Ang^-4 
--------------------------------------------------------------------------------
H1   c C1   c Harmonic      Harmonic k2      29.860748    eV*Ang^-2 0.000 1 Bond
                            Harmonic r0      1.0870000    Ang       
                            Harmonic k3      0.0000000    eV*Ang^-3 
                            Harmonic k4      0.0000000    eV*Ang^-4 
--------------------------------------------------------------------------------
H4   c O1   c Harmonic      Harmonic k2      32.054988    eV*Ang^-2 0.000 1 Bond
                            Harmonic r0     0.97400000    Ang       
                            Harmonic k3      0.0000000    eV*Ang^-3 
                            Harmonic k4      0.0000000    eV*Ang^-4 
--------------------------------------------------------------------------------

  Intramolecular Three-body potentials :

--------------------------------------------------------------------------------
  Atoms       Potential      Parameter       Value         Units   Cutoffs(Ang)
  1 / 2 / 3                                                          Min /  Max 
--------------------------------------------------------------------------------
C2    core    Harmonic      Three-body cnst  5.9001646    eV*rad^-2 0.000 1 Bond
C3    core                  Three-body angl  123.11010    degrees   0.000 1 Bond
O2    core                  Three-body k4    0.0000000    eV*rad^-4 0.000 1 Bond
                            Three-body k3    0.0000000    eV*rad^-3 
--------------------------------------------------------------------------------
C2    core    Harmonic      Three-body cnst  6.5766498    eV*rad^-2 0.000 1 Bond
N     core                  Three-body angl  122.03010    degrees   0.000 1 Bond
O2    core                  Three-body k4    0.0000000    eV*rad^-4 0.000 1 Bond
                            Three-body k3    0.0000000    eV*rad^-3 
--------------------------------------------------------------------------------
N     core    Harmonic      Three-body cnst  5.5757987    eV*rad^-2 0.000 1 Bond
C1    core                  Three-body angl  123.71010    degrees   0.000 1 Bond
C2    core                  Three-body k4    0.0000000    eV*rad^-4 0.000 1 Bond
                            Three-body k3    0.0000000    eV*rad^-3 
--------------------------------------------------------------------------------
C2    core    Harmonic      Three-body cnst  5.8854207    eV*rad^-2 0.000 1 Bond
C3    core                  Three-body angl  115.15000    degrees   0.000 1 Bond
N     core                  Three-body k4    0.0000000    eV*rad^-4 0.000 1 Bond
                            Three-body k3    0.0000000    eV*rad^-3 
--------------------------------------------------------------------------------
C1    core    Harmonic      Three-body cnst  5.8949609    eV*rad^-2 0.000 1 Bond
C1    core                  Three-body angl  119.89010    degrees   0.000 1 Bond
N     core                  Three-body k4    0.0000000    eV*rad^-4 0.000 1 Bond
                            Three-body k3    0.0000000    eV*rad^-3 
--------------------------------------------------------------------------------
C1    core    Harmonic      Three-body cnst  5.8264451    eV*rad^-2 0.000 1 Bond
C1    core                  Three-body angl  119.97010    degrees   0.000 1 Bond
C1    core                  Three-body k4    0.0000000    eV*rad^-4 0.000 1 Bond
                            Three-body k3    0.0000000    eV*rad^-3 
--------------------------------------------------------------------------------
C1    core    Harmonic      Three-body cnst  6.0580112    eV*rad^-2 0.000 1 Bond
C1    core                  Three-body angl  119.94010    degrees   0.000 1 Bond
O1    core                  Three-body k4    0.0000000    eV*rad^-4 0.000 1 Bond
                            Three-body k3    0.0000000    eV*rad^-3 
--------------------------------------------------------------------------------
C3    core    Harmonic      Three-body cnst  4.0936024    eV*rad^-2 0.000 1 Bond
H2    core                  Three-body angl  109.68000    degrees   0.000 1 Bond
C2    core                  Three-body k4    0.0000000    eV*rad^-4 0.000 1 Bond
                            Three-body k3    0.0000000    eV*rad^-3 
--------------------------------------------------------------------------------
N     core    Harmonic      Three-body cnst  4.2679274    eV*rad^-2 0.000 1 Bond
H3    core                  Three-body angl  118.46010    degrees   0.000 1 Bond
C2    core                  Three-body k4    0.0000000    eV*rad^-4 0.000 1 Bond
                            Three-body k3    0.0000000    eV*rad^-3 
--------------------------------------------------------------------------------
C3    core    Harmonic      Three-body cnst  3.4197191    eV*rad^-2 0.000 1 Bond
H2    core                  Three-body angl  108.35000    degrees   0.000 1 Bond
H2    core                  Three-body k4    0.0000000    eV*rad^-4 0.000 1 Bond
                            Three-body k3    0.0000000    eV*rad^-3 
--------------------------------------------------------------------------------
N     core    Harmonic      Three-body cnst  4.1074790    eV*rad^-2 0.000 1 Bond
H3    core                  Three-body angl  115.94000    degrees   0.000 1 Bond
C1    core                  Three-body k4    0.0000000    eV*rad^-4 0.000 1 Bond
                            Three-body k3    0.0000000    eV*rad^-3 
--------------------------------------------------------------------------------
C1    core    Harmonic      Three-body cnst  4.2028808    eV*rad^-2 0.000 1 Bond
H1    core                  Three-body angl  120.01010    degrees   0.000 1 Bond
C1    core                  Three-body k4    0.0000000    eV*rad^-4 0.000 1 Bond
                            Three-body k3    0.0000000    eV*rad^-3 
--------------------------------------------------------------------------------
O1    core    Harmonic      Three-body cnst  4.2367050    eV*rad^-2 0.000 1 Bond
H4    core                  Three-body angl  109.47000    degrees   0.000 1 Bond
C1    core                  Three-body k4    0.0000000    eV*rad^-4 0.000 1 Bond
                            Three-body k3    0.0000000    eV*rad^-3 
--------------------------------------------------------------------------------

  Intramolecular Four-body potentials :

--------------------------------------------------------------------------------
  Atoms       Potential      Parameter       Value         Units   Cutoffs(Ang)
  1 - 4                                                             Min /  Max 
--------------------------------------------------------------------------------
C1    core    Standard      Torsional const 0.10841108    eV         Bonded
N     core Phase = +  2                                                       
C2    core                                                              
O2    core
--------------------------------------------------------------------------------
C2    core    Standard      Torsional const 0.19513994E-01eV         Bonded
N     core Phase = +  2                                                       
C1    core                                                              
C1    core
--------------------------------------------------------------------------------
C3    core    Standard      Torsional const 0.10841108    eV         Bonded
C2    core Phase = +  2                                                       
N     core                                                              
C1    core
--------------------------------------------------------------------------------
C1    core    Standard      Torsional const 0.15719607    eV         Bonded
C1    core Phase = +  2                                                       
C1    core                                                              
N     core
--------------------------------------------------------------------------------
C1    core    Standard      Torsional const 0.15719607    eV         Bonded
C1    core Phase = +  2                                                       
C1    core                                                              
C1    core
--------------------------------------------------------------------------------
C1    core    Standard      Torsional const 0.15719607    eV         Bonded
C1    core Phase = +  2                                                       
C1    core                                                              
O1    core
--------------------------------------------------------------------------------
H2    core    Standard      Torsional const 0.34691546E-01eV         Bonded
C3    core Phase = +  1                                                       
C2    core                                                              
O2    core
--------------------------------------------------------------------------------
H2    core    Standard      Torsional const 0.34691546E-02eV         Bonded
C3    core Phase = +  3                                                       
C2    core                                                              
O2    core
--------------------------------------------------------------------------------
H3    core    Standard      Torsional const 0.86728864E-01eV         Bonded
N     core Phase = +  1                                                       
C2    core                                                              
O2    core
--------------------------------------------------------------------------------
H3    core    Standard      Torsional const 0.10841108    eV         Bonded
N     core Phase = +  2                                                       
C2    core                                                              
O2    core
--------------------------------------------------------------------------------
C3    core    Standard      Torsional const 0.10841108    eV         Bonded
C2    core Phase = +  2                                                       
N     core                                                              
H3    core
--------------------------------------------------------------------------------
H2    core    Standard      Torsional const  0.0000000    eV         Bonded
C3    core Phase = +  2                                                       
C2    core                                                              
N     core
--------------------------------------------------------------------------------
H1    core    Standard      Torsional const 0.15719607    eV         Bonded
C1    core Phase = +  2                                                       
C1    core                                                              
N     core
--------------------------------------------------------------------------------
C1    core    Standard      Torsional const 0.19513994E-01eV         Bonded
C1    core Phase = +  2                                                       
N     core                                                              
H3    core
--------------------------------------------------------------------------------
C1    core    Standard      Torsional const 0.15719607    eV         Bonded
C1    core Phase = +  2                                                       
C1    core                                                              
H1    core
--------------------------------------------------------------------------------
H1    core    Standard      Torsional const 0.15719607    eV         Bonded
C1    core Phase = +  2                                                       
C1    core                                                              
H1    core
--------------------------------------------------------------------------------
C1    core    Standard      Torsional const 0.39027989E-01eV         Bonded
C1    core Phase = +  2                                                       
O1    core                                                              
H4    core
--------------------------------------------------------------------------------
H1    core    Standard      Torsional const 0.15719607    eV         Bonded
C1    core Phase = +  2                                                       
C1    core                                                              
O1    core
--------------------------------------------------------------------------------
C3    core    Standard      Torsional const 0.45532654    eV         Improper
C2    core Phase = +  2                                                       
N     core                                                              
O2    core
--------------------------------------------------------------------------------
C1    core    Standard      Torsional const 0.23850438E-01eV         Improper
C1    core Phase = +  2                                                       
C1    core                                                              
N     core
--------------------------------------------------------------------------------
C1    core    Standard      Torsional const 0.23850438E-01eV         Improper
C1    core Phase = +  2                                                       
C1    core                                                              
O1    core
--------------------------------------------------------------------------------
C2    core    Standard      Torsional const 0.47700875E-01eV         Improper
N     core Phase = +  2                                                       
C1    core                                                              
H3    core
--------------------------------------------------------------------------------
C1    core    Standard      Torsional const 0.23850438E-01eV         Improper
C1    core Phase = +  2                                                       
C1    core                                                              
H1    core
--------------------------------------------------------------------------------

********************************************************************************
*  Output for configuration   1                                                *
********************************************************************************


  Components of energy : 

--------------------------------------------------------------------------------
  Interatomic potentials     =          -4.02364206 eV    
  Three-body potentials      =           0.79916317 eV    
  Four-body potentials       =           1.16536047 eV    
  Improper torsions          =           0.00691439 eV    
  Out of plane potentials    =           0.00000000 eV    
  Monopole - monopole (real) =          35.88409039 eV    
  Monopole - monopole (recip)=         -33.20763051 eV    
  Monopole - monopole (total)=           2.67645989 eV    
--------------------------------------------------------------------------------
  Total lattice energy       =           0.62425587 eV    
--------------------------------------------------------------------------------
  Total lattice energy       =              60.2311 kJ/(mole unit cells)
--------------------------------------------------------------------------------


  Number of variables =        9

  Maximum number of calculations  =          1000
  Maximum Hessian update interval =            10
  Maximum step size               =   1.000000000
  Maximum parameter tolerance     =   0.000010000
  Maximum function  tolerance     =   0.000010000
  Maximum gradient  tolerance     =   0.001000000
  Maximum gradient  component     =   0.010000000

  Symmetry constrained optimisation

  Cell parameters to be optimised using strains

  Newton-Raphson optimiser to be used

  BFGS hessian update to be used

  Lower half triangular hessian to be used

  Minimiser to switch to RFO
  When gradient norm is less than     0.100000

  Start of bulk optimisation :

  Cycle:      0 Energy:         0.624256  Gnorm:      0.000165  CPU:    0.251


  **** Optimisation achieved ****


  Final energy =       0.62425587 eV
  Final Gnorm  =       0.00016510

  Components of energy : 

--------------------------------------------------------------------------------
  Interatomic potentials     =          -4.02364206 eV    
  Three-body potentials      =           0.79916317 eV    
  Four-body potentials       =           1.16536047 eV    
  Improper torsions          =           0.00691439 eV    
  Out of plane potentials    =           0.00000000 eV    
  Monopole - monopole (real) =          35.88409039 eV    
  Monopole - monopole (recip)=         -33.20763051 eV    
  Monopole - monopole (total)=           2.67645989 eV    
--------------------------------------------------------------------------------
  Total lattice energy       =           0.62425587 eV    
--------------------------------------------------------------------------------
  Total lattice energy       =              60.2311 kJ/(mole unit cells)
--------------------------------------------------------------------------------

  Final asymmetric unit coordinates :

--------------------------------------------------------------------------------
   No.  Atomic        x           y           z         Radius
        Label       (Frac)      (Frac)      (Frac)       (Angs) 
--------------------------------------------------------------------------------
     1  C1    c     0.221880    0.446995    0.660204    0.000000
     2  C1    c     0.299120    0.340247    0.658508    0.000000
     3  C1    c     0.149030    0.488322    0.730367    0.000000
     4  C1    c     0.303193    0.276270    0.726835    0.000000
     5  C1    c     0.154261    0.424499    0.798450    0.000000
     6  C1    c     0.233396    0.319111    0.796956    0.000000
     7  C2    c     0.239778    0.500839    0.517818    0.000000
     8  C3    c     0.225352    0.603165    0.469041    0.000000
     9  H1    c     0.360165    0.306931    0.605002    0.000000
    10  H1    c     0.089189    0.571420    0.732187    0.000000
    11  H1    c     0.364882    0.193737    0.725998    0.000000
    12  H1    c     0.095474    0.457053    0.852582    0.000000
    13  H2    c     0.108220    0.654970    0.490157    0.000000
    14  H2    c     0.196971    0.581723    0.408090    0.000000
    15  H2    c     0.358501    0.649891    0.473151    0.000000
    16  H3    c     0.202967    0.600611    0.609456    0.000000
    17  H4    c     0.227130    0.312169    0.908273    0.000000
    18  N     c     0.221520    0.520352    0.594731    0.000000
    19  O1    c     0.245333    0.259899    0.864289    0.000000
    20  O2    c     0.263202    0.410068    0.488855    0.000000
--------------------------------------------------------------------------------

  Final Cartesian lattice vectors (Angstroms) :

        6.977547    0.000000    0.000000
        0.000000   12.074138    0.000000
        0.000000    0.000000   17.043402


  Final cell parameters and derivatives :

--------------------------------------------------------------------------------
       a            6.977547 Angstrom     dE/de1(xx)     0.000398 eV/strain
       b           12.074138 Angstrom     dE/de2(yy)    -0.000305 eV/strain
       c           17.043402 Angstrom     dE/de3(zz)    -0.000153 eV/strain
       alpha       90.000000 Degrees      dE/de4(yz)     0.000000 eV/strain
       beta        90.000000 Degrees      dE/de5(xz)     0.000000 eV/strain
       gamma       90.000000 Degrees      dE/de6(xy)     0.000000 eV/strain
--------------------------------------------------------------------------------

  Primitive cell volume =          1435.870237 Angs**3

  Density of cell =      1.398702 g/cm**3

  Non-primitive cell volume =          1435.870237 Angs**3


  Final internal derivatives :

--------------------------------------------------------------------------------
   No.  Atomic          a             b             c           Radius
        Label          (eV)          (eV)          (eV)        (eV/Angs)
--------------------------------------------------------------------------------
--------------------------------------------------------------------------------
  Maximum abs         0.000000      0.000000      0.000000      0.000000
--------------------------------------------------------------------------------

  Final derivatives for centre of mass of rigid molecules: 

--------------------------------------------------------------------------------
   Molecule             a             b             c       
                       (eV)          (eV)          (eV)     
--------------------------------------------------------------------------------
      1               0.000340      0.000529      0.000511
--------------------------------------------------------------------------------

  Final derivatives for quarternions of rigid molecules: 

--------------------------------------------------------------------------------
   Molecule             Q1            Q2            Q3      
                       (eV)          (eV)          (eV)     
--------------------------------------------------------------------------------
      1              -0.000551      0.000349     -0.000923
--------------------------------------------------------------------------------

  Born effective charge tensors : 

-------------------------------------------------------------------------------
  Atom             x           y             z
-------------------------------------------------------------------------------
    1 C1    x       0.1306      0.0000      0.0000
            y       0.0000      0.1306      0.0000
            z       0.0000      0.0000      0.1306
-------------------------------------------------------------------------------
    2 C1    x      -0.1601      0.0000      0.0000
            y       0.0000     -0.1601      0.0000
            z       0.0000      0.0000     -0.1601
-------------------------------------------------------------------------------
    3 C1    x      -0.1601      0.0000      0.0000
            y       0.0000     -0.1601      0.0000
            z       0.0000      0.0000     -0.1601
-------------------------------------------------------------------------------
    4 C1    x      -0.2499      0.0000      0.0000
            y       0.0000     -0.2499      0.0000
            z       0.0000      0.0000     -0.2499
-------------------------------------------------------------------------------
    5 C1    x      -0.2499      0.0000      0.0000
            y       0.0000     -0.2499      0.0000
            z       0.0000      0.0000     -0.2499
-------------------------------------------------------------------------------
    6 C1    x       0.2899      0.0000      0.0000
            y       0.0000      0.2899      0.0000
            z       0.0000      0.0000      0.2899
-------------------------------------------------------------------------------
    7 C2    x       0.7162      0.0000      0.0000
            y       0.0000      0.7162      0.0000
            z       0.0000      0.0000      0.7162
-------------------------------------------------------------------------------
    8 C3    x      -0.5097      0.0000      0.0000
            y       0.0000     -0.5097      0.0000
            z       0.0000      0.0000     -0.5097
-------------------------------------------------------------------------------
    9 H1    x       0.1536      0.0000      0.0000
            y       0.0000      0.1536      0.0000
            z       0.0000      0.0000      0.1536
-------------------------------------------------------------------------------
   10 H1    x       0.1536      0.0000      0.0000
            y       0.0000      0.1536      0.0000
            z       0.0000      0.0000      0.1536
-------------------------------------------------------------------------------
   11 H1    x       0.1703      0.0000      0.0000
            y       0.0000      0.1703      0.0000
            z       0.0000      0.0000      0.1703
-------------------------------------------------------------------------------
   12 H1    x       0.1703      0.0000      0.0000
            y       0.0000      0.1703      0.0000
            z       0.0000      0.0000      0.1703
-------------------------------------------------------------------------------
   13 H2    x       0.1423      0.0000      0.0000
            y       0.0000      0.1423      0.0000
            z       0.0000      0.0000      0.1423
-------------------------------------------------------------------------------
   14 H2    x       0.1423      0.0000      0.0000
            y       0.0000      0.1423      0.0000
            z       0.0000      0.0000      0.1423
-------------------------------------------------------------------------------
   15 H2    x       0.1423      0.0000      0.0000
            y       0.0000      0.1423      0.0000
            z       0.0000      0.0000      0.1423
-------------------------------------------------------------------------------
   16 H3    x       0.2385      0.0000      0.0000
            y       0.0000      0.2385      0.0000
            z       0.0000      0.0000      0.2385
-------------------------------------------------------------------------------
   17 H4    x       0.3575      0.0000      0.0000
            y       0.0000      0.3575      0.0000
            z       0.0000      0.0000      0.3575
-------------------------------------------------------------------------------
   18 N     x      -0.4369      0.0000      0.0000
            y       0.0000     -0.4369      0.0000
            z       0.0000      0.0000     -0.4369
-------------------------------------------------------------------------------
   19 O1    x      -0.5075      0.0000      0.0000
            y       0.0000     -0.5075      0.0000
            z       0.0000      0.0000     -0.5075
-------------------------------------------------------------------------------
   20 O2    x      -0.5333      0.0000      0.0000
            y       0.0000     -0.5333      0.0000
            z       0.0000      0.0000     -0.5333
-------------------------------------------------------------------------------




  Elastic Constant Matrix: (Units=GPa)

-------------------------------------------------------------------------------
  Indices      1         2         3         4         5         6    
-------------------------------------------------------------------------------
       1     21.4573    6.6784    5.9493   -0.0000   -0.0000   -0.0000
       2      6.6784   41.2338   25.4347    0.0000    0.0000   -0.0000
       3      5.9493   25.4347   74.0082   -0.0000   -0.0000    0.0000
       4     -0.0000    0.0000   -0.0000   18.0149    0.0000   -0.0000
       5     -0.0000    0.0000   -0.0000    0.0000   -0.5611   -0.0000
       6     -0.0000   -0.0000    0.0000   -0.0000   -0.0000    6.7566
-------------------------------------------------------------------------------


  Elastic Compliance Matrix: (Units=1/GPa)

-------------------------------------------------------------------------------
  Indices      1         2         3         4         5         6    
-------------------------------------------------------------------------------
       1    0.049217 -0.007019 -0.001544  0.000000 -0.000000  0.000000
       2   -0.007019  0.031777 -0.010357 -0.000000  0.000000  0.000000
       3   -0.001544 -0.010357  0.017195  0.000000 -0.000000 -0.000000
       4    0.000000 -0.000000  0.000000  0.055510  0.000000  0.000000
       5   -0.000000  0.000000 -0.000000  0.000000 -1.782068 -0.000000
       6    0.000000  0.000000 -0.000000  0.000000 -0.000000  0.148003
-------------------------------------------------------------------------------

  Mechanical properties :

-------------------------------------------------------------------------------
  Convention :                    Reuss         Voigt         Hill
-------------------------------------------------------------------------------
  Bulk  Modulus (GPa)     =      16.57000      23.64711      20.10855
  Shear Modulus (GPa)     =      -3.51516      11.41788       3.95136
-------------------------------------------------------------------------------
  Velocity S-wave (km/s)  =      -1.58529       2.85713       1.68078
  Velocity P-wave (km/s)  =       2.91476       5.27169       4.25949
-------------------------------------------------------------------------------
  Compressibility (1/GPa) =    0.06035003
-------------------------------------------------------------------------------
  Stress axis :                     x             y             z
-------------------------------------------------------------------------------
  Youngs Moduli (GPa)     =      20.31822      31.46909      58.15477
-------------------------------------------------------------------------------
  Poissons Ratio (x)      =                     0.22087       0.08980
  Poissons Ratio (y)      =       0.14261                     0.60230
  Poissons Ratio (z)      =       0.03138       0.32592
-------------------------------------------------------------------------------


  Piezoelectric Strain Matrix: (Units=C/m**2)

-------------------------------------------------------------------------------
  Indices      1         2         3         4         5         6    
-------------------------------------------------------------------------------
       x    -0.00000   0.00000   0.00000  -0.00000  -0.00000  -0.00000
       y     0.00000  -0.00000  -0.00000  -0.00000   0.00000   0.00000
       z    -0.00000  -0.00000  -0.00000  -0.00000   0.00000  -0.00000
-------------------------------------------------------------------------------


  Piezoelectric Stress Matrix: (Units=10**-11 C/N)

-------------------------------------------------------------------------------
  Indices      1         2         3         4         5         6    
-------------------------------------------------------------------------------
       x    -0.00000  -0.00000   0.00000  -0.00000   0.00001  -0.00000
       y     0.00000   0.00000  -0.00000  -0.00000  -0.00002   0.00000
       z    -0.00000  -0.00000  -0.00000  -0.00000  -0.00001  -0.00000
-------------------------------------------------------------------------------


  Static dielectric constant tensor : 

-------------------------------------------------------------------------------
              x         y         z
-------------------------------------------------------------------------------
       x     1.00000   0.00000   0.00000
       y     0.00000   1.00000   0.00000
       z     0.00000   0.00000   1.00000
--------------------------------------------------------------------------------

  Static refractive indices : 

-------------------------------------------------------------------------------
    1 =    1.00000      2 =    1.00000      3 =    1.00000
-------------------------------------------------------------------------------


  Phonon Calculation : 

  Number of k points for this configuration =        1

--------------------------------------------------------------------------------
  K point      1 =   0.000000  0.000000  0.000000  Weight =    1.000
--------------------------------------------------------------------------------

  Frequencies (cm-1) [NB: Negative implies an imaginary mode]:

   -0.00   -0.00    0.00   14.74   21.11   29.09   31.08   40.99   48.31
   52.16   55.53   57.08   57.11   64.76   69.30   71.33   75.08   76.85
   80.30   88.62   92.35   92.75   93.53  105.16  110.18  111.58  113.51
  115.17  124.00  124.78  126.67  127.48  131.18  131.33  133.89  138.60
  139.54  139.82  144.93  146.72  148.95  153.62  153.82  166.33  168.15
  169.85  176.47  179.31


--------------------------------------------------------------------------------
  Phonon properties (per mole of unit cells): Temperature =      0.000 K
--------------------------------------------------------------------------------
  Zero point energy            =        0.290937 eV
--------------------------------------------------------------------------------

  Time to end of optimisation =       0.9017 seconds


  Peak dynamic memory used =       6.83 MB 


  Timing analysis for GULP :

--------------------------------------------------------------------------------
  Task / Subroutine                                          Time (Seconds)
--------------------------------------------------------------------------------
  Calculation of reciprocal space energy and derivatives          0.3267
  Calculation of real space energy and derivatives                0.4482
  Calculation of real space energy using symmetry                 0.0109
  Calculation of three-body energy and derivatives                0.0334
  Calculation of four-body energy and derivatives                 0.0578
  Calculation of molecules and connectivity                       0.0033
  Calculation of phonons                                          0.2628
  Symmetry generation of equivalent positions                     0.0031
--------------------------------------------------------------------------------
  Total CPU time                                                  0.9017
--------------------------------------------------------------------------------


  Job Finished at 12:01.20  8th July       2020                               

