********************************************************************************
*                       GENERAL UTILITY LATTICE PROGRAM                        *
*                                 Julian Gale                                  *
*                       Curtin Institute for Computation                       *
*                    School of Molecular and Life Sciences                     *
*                    Curtin University, Western Australia                      *
********************************************************************************
* Version = 6.0.0 * Last modified =   7th July 2020                            *
********************************************************************************
*  single       - perform a single point run                                   *
*  md           - perform molecular dynamics run                               *
*  conp         - constant pressure calculation                                *
********************************************************************************
* Example of a shell model MD run for quartz                                   *
********************************************************************************


  Job Started  at 11:39.30  8th July       2020                               

  Number of CPUs =     1

  Host name      = M-A0034725                              


  Total number of configurations input =      1

********************************************************************************
*  Input for Configuration =   1                                               *
********************************************************************************

  Formula = Si3O6                                                       

  Number of irreducible atoms/shells =      15


  Total number atoms/shells =      15

  Dimensionality = 3               :  Bulk   



  Cartesian lattice vectors (Angstroms) :

        4.833380    0.000000    0.000000
       -2.416690    4.185830    0.000000
        0.000000    0.000000    5.345010

  Cell parameters (Angstroms/Degrees):

  a =       4.8334    alpha =  90.0000
  b =       4.8334    beta  =  90.0000
  c =       5.3450    gamma = 120.0000

  Initial cell volume =         108.138673 Angs**3

  Temperature of configuration =   300.     K 

  Pressure of configuration =         0.000 GPa 

  Fractional coordinates of asymmetric unit :

--------------------------------------------------------------------------------
   No.  Atomic       x           y          z         Charge      Occupancy
        Label      (Frac)      (Frac)     (Frac)        (e)         (Frac)  
--------------------------------------------------------------------------------
      1 Si    c    0.463746 *  0.000000 *  0.333333 *   4.00000    1.000000    
      2 Si    c    0.000000 *  0.463746 *  0.666667 *   4.00000    1.000000    
      3 Si    c    0.536254 *  0.536254 *  0.000000 *   4.00000    1.000000    
      4 O     c    0.408155 *  0.278819 *  0.224995 *   0.86902    1.000000    
      5 O     c    0.721181 *  0.129335 *  0.558329 *   0.86902    1.000000    
      6 O     c    0.870665 *  0.591845 *  0.891662 *   0.86902    1.000000    
      7 O     c    0.129335 *  0.721181 *  0.441671 *   0.86902    1.000000    
      8 O     c    0.591845 *  0.870665 *  0.108338 *   0.86902    1.000000    
      9 O     c    0.278819 *  0.408155 *  0.775005 *   0.86902    1.000000    
     10 O     s    0.428076 *  0.276220 *  0.213085 *  -2.86902    1.000000    
     11 O     s    0.723780 *  0.151855 *  0.546418 *  -2.86902    1.000000    
     12 O     s    0.848145 *  0.571924 *  0.879751 *  -2.86902    1.000000    
     13 O     s    0.151855 *  0.723780 *  0.453582 *  -2.86902    1.000000    
     14 O     s    0.571924 *  0.848145 *  0.120249 *  -2.86902    1.000000    
     15 O     s    0.276220 *  0.428076 *  0.786915 *  -2.86902    1.000000    
--------------------------------------------------------------------------------



********************************************************************************
*  General input information                                                   *
********************************************************************************

  Species output for all configurations : 

--------------------------------------------------------------------------------
  Species    Type    Atomic    Atomic    Charge       Radii (Angs)     Library
                     Number     Mass       (e)     Cova   Ionic  VDW   Symbol
--------------------------------------------------------------------------------
    Si       Core       14      28.09   4.000000   1.200  0.000  2.100          
    O        Core        8      14.40   0.869020   0.730  0.000  1.360          
    O        Shell       8       1.60  -2.869020   0.730  0.000  1.360          
--------------------------------------------------------------------------------


  Lattice summation method               =    Ewald          (3-D)
                                         =    Parry          (2-D)
                                         =    Saunders et al (1-D)
  Accuracy factor for lattice sums       =   12.000


  Analytic derivatives to be used

  Time limit = Infinity

  Maximum range for interatomic potentials =        12.000000 Angstroms

  Taper potentials to zero over   1.0000 Angstroms using polynomial

  General interatomic potentials :

--------------------------------------------------------------------------------
Atom  Types   Potential      Parameter       Value         Units   Cutoffs(Ang)
  1     2                                                            Min /  Max 
--------------------------------------------------------------------------------
Si   c O    s Buckingham    Buckingham A     1283.9070    eV        0.000 12.000
                            Buckingham rho  0.32052000    Ang       
                            Buckingham C     10.661580    eV*Ang^6  
--------------------------------------------------------------------------------
O    s O    s Buckingham    Buckingham A     22764.000    eV        0.000 12.000
                            Buckingham rho  0.14900000    Ang       
                            Buckingham C     27.879000    eV*Ang^6  
--------------------------------------------------------------------------------
O    c O    s Spring (c-s)  Spring k 2       74.920000    eV*Ang^-2 0.000  0.800
                            Spring k 4       0.0000000    eV*Ang^-4 
--------------------------------------------------------------------------------

  General Three-body potentials :

--------------------------------------------------------------------------------
  Atoms       Potential      Parameter       Value         Units   Cutoffs(Ang)
  1 / 2 / 3                                                          Min /  Max 
--------------------------------------------------------------------------------
Si    core    Harmonic      Three-body cnst  2.0972400    eV*rad^-2 0.000  1.800
O     shel                  Three-body angl  109.47000    degrees   0.000  1.800
O     shel                  Three-body k4    0.0000000    eV*rad^-4 0.000  3.500
                            Three-body k3    0.0000000    eV*rad^-3 
--------------------------------------------------------------------------------

********************************************************************************
*  Output for configuration   1                                                *
********************************************************************************


  Components of energy : 

--------------------------------------------------------------------------------
  Interatomic potentials     =         106.71938202 eV    
  Three-body potentials      =           0.04837195 eV    
  Monopole - monopole (real) =        -108.09380331 eV    
  Monopole - monopole (recip)=        -384.78487081 eV    
  Monopole - monopole (total)=        -492.87867412 eV    
--------------------------------------------------------------------------------
  Total lattice energy       =        -386.11092015 eV    
--------------------------------------------------------------------------------
  Total lattice energy       =          -37253.8015 kJ/(mole unit cells)
--------------------------------------------------------------------------------

  Equations of motion will be integrated using the leapfrog Verlet algorithm.

  Core-shell wave numbers:

    O   :    3761.37 cm**(-1)

  Above wave numbers must be larger than the vibrational modes for this system.


********************************************************************************
*  Molecular Dynamics                                                          *
********************************************************************************

  Isothermal/baric ensemble (NPT) to be used

  Friction for temperature bath =           0.050000
  Friction for pressure    bath =           0.050000

  No. of mobile ions        =                  9

  No. of degrees of freedom =                 24

  Time step                 =           0.000100 ps
  Equilibration time        =           0.500000 ps
  Production time           =           0.200000 ps
  Scaling time              =           0.500000 ps
  Scaling frequency         =           0.000100 ps
  Sampling frequency        =           0.010000 ps
  Write frequency           =           0.010000 ps
  TD-Force start time       =           0.000000 ps
  TD-Field start time       =           0.000000 ps



  Molecular dynamics equilibration :

  ** Time :            0.01000 ps :
     Properties:                   Instantaneous       Averaged
       Kinetic energy    (eV) =       0.307775          0.307775
       Potential energy  (eV) =    -385.725818       -385.725818
       Total energy      (eV) =    -385.418043       -385.418043
       Temperature       (K)  =     297.631867        297.631867
       C/S temperature   (K)  =       0.733573          0.733573
       Pressure         (GPa) =       0.637171          0.637171
       Cell parameter : a (A) =       4.835152          4.835152
       Cell parameter : b (A) =       4.830858          4.830858
       Cell parameter : c (A) =       5.350792          5.350792
       Cell angle : alpha (o) =      90.000000         90.000000
       Cell angle : beta  (o) =      90.054174         90.054174
       Cell angle : gamma (o) =     119.956106        119.956106
       Cell volume :   (A**3) =     108.286608        108.286608
  ** Time :            0.02000 ps :
     Properties:                   Instantaneous       Averaged
       Kinetic energy    (eV) =       0.308994          0.308385
       Potential energy  (eV) =    -385.643134       -385.684476
       Total energy      (eV) =    -385.334139       -385.376091
       Temperature       (K)  =     298.810678        298.221273
       C/S temperature   (K)  =       0.695342          0.714457
       Pressure         (GPa) =       0.531659          0.584003
       Cell parameter : a (A) =       4.847693          4.841422
       Cell parameter : b (A) =       4.825198          4.828028
       Cell parameter : c (A) =       5.354343          5.352568
       Cell angle : alpha (o) =      89.908035         89.954018
       Cell angle : beta  (o) =      90.145441         90.099808
       Cell angle : gamma (o) =     120.033910        119.995008
       Cell volume :   (A**3) =     108.426922        108.356765
  ** Time :            0.03000 ps :
     Properties:                   Instantaneous       Averaged
       Kinetic energy    (eV) =       0.311195          0.309322
       Potential energy  (eV) =    -385.674096       -385.681016
       Total energy      (eV) =    -385.362900       -385.371694
       Temperature       (K)  =     300.938872        299.127139
       C/S temperature   (K)  =       0.810469          0.746461
       Pressure         (GPa) =       1.502316          0.889059
       Cell parameter : a (A) =       4.867855          4.850233
       Cell parameter : b (A) =       4.830574          4.828877
       Cell parameter : c (A) =       5.350545          5.351894
       Cell angle : alpha (o) =      89.840829         89.916288
       Cell angle : beta  (o) =      90.051315         90.083643
       Cell angle : gamma (o) =     120.217494        120.069170
       Cell volume :   (A**3) =     108.719484        108.477672
  ** Time :            0.04000 ps :
     Properties:                   Instantaneous       Averaged
       Kinetic energy    (eV) =       0.309719          0.309421
       Potential energy  (eV) =    -385.909640       -385.738172
       Total energy      (eV) =    -385.599921       -385.428751
       Temperature       (K)  =     299.511358        299.223194
       C/S temperature   (K)  =       0.833327          0.768178
       Pressure         (GPa) =       1.615649          1.067901
       Cell parameter : a (A) =       4.870312          4.855253
       Cell parameter : b (A) =       4.842637          4.832317
       Cell parameter : c (A) =       5.354957          5.352659
       Cell angle : alpha (o) =      90.031711         89.945144
       Cell angle : beta  (o) =      89.884549         90.033870
       Cell angle : gamma (o) =     120.178866        120.096594
       Cell volume :   (A**3) =     109.178920        108.652984
  ** Time :            0.05000 ps :
     Properties:                   Instantaneous       Averaged
       Kinetic energy    (eV) =       0.308282          0.309193
       Potential energy  (eV) =    -385.656990       -385.721936
       Total energy      (eV) =    -385.348708       -385.412742
       Temperature       (K)  =     298.121752        299.002905
       C/S temperature   (K)  =       0.812143          0.776971
       Pressure         (GPa) =       1.587818          1.168191
       Cell parameter : a (A) =       4.859522          4.856107
       Cell parameter : b (A) =       4.852217          4.836297
       Cell parameter : c (A) =       5.368984          5.355924
       Cell angle : alpha (o) =      90.328491         90.021813
       Cell angle : beta  (o) =      89.896421         90.006380
       Cell angle : gamma (o) =     119.983769        120.074029
       Cell volume :   (A**3) =     109.652887        108.852964
  ** Time :            0.06000 ps :
     Properties:                   Instantaneous       Averaged
       Kinetic energy    (eV) =       0.310007          0.309329
       Potential energy  (eV) =    -385.761231       -385.728485
       Total energy      (eV) =    -385.451224       -385.419156
       Temperature       (K)  =     299.789682        299.134035
       C/S temperature   (K)  =       0.708410          0.765544
       Pressure         (GPa) =       0.090576          0.986326
       Cell parameter : a (A) =       4.846386          4.854487
       Cell parameter : b (A) =       4.859881          4.840228
       Cell parameter : c (A) =       5.375031          5.359109
       Cell angle : alpha (o) =      90.461975         90.095174
       Cell angle : beta  (o) =      89.940967         89.995478
       Cell angle : gamma (o) =     119.749219        120.019894
       Cell volume :   (A**3) =     109.908338        109.028860
  ** Time :            0.07000 ps :
     Properties:                   Instantaneous       Averaged
       Kinetic energy    (eV) =       0.311369          0.309620
       Potential energy  (eV) =    -385.865029       -385.747991
       Total energy      (eV) =    -385.553660       -385.438371
       Temperature       (K)  =     301.106494        299.415815
       C/S temperature   (K)  =       0.853501          0.778109
       Pressure         (GPa) =      -0.694378          0.746791
       Cell parameter : a (A) =       4.835536          4.851779
       Cell parameter : b (A) =       4.863603          4.843567
       Cell parameter : c (A) =       5.368434          5.360441
       Cell angle : alpha (o) =      90.429332         90.142911
       Cell angle : beta  (o) =      89.847772         89.974377
       Cell angle : gamma (o) =     119.545298        119.952095
       Cell volume :   (A**3) =     109.834841        109.144000
  ** Time :            0.08000 ps :
     Properties:                   Instantaneous       Averaged
       Kinetic energy    (eV) =       0.307524          0.309358
       Potential energy  (eV) =    -385.864310       -385.762531
       Total energy      (eV) =    -385.556786       -385.453173
       Temperature       (K)  =     297.388288        299.162374
       C/S temperature   (K)  =       0.839171          0.785742
       Pressure         (GPa) =      -1.456878          0.473437
       Cell parameter : a (A) =       4.837519          4.849997
       Cell parameter : b (A) =       4.858751          4.845465
       Cell parameter : c (A) =       5.359441          5.360316
       Cell angle : alpha (o) =      90.313664         90.164255
       Cell angle : beta  (o) =      89.842500         89.957892
       Cell angle : gamma (o) =     119.642620        119.913410
       Cell volume :   (A**3) =     109.482235        109.186279
  ** Time :            0.09000 ps :
     Properties:                   Instantaneous       Averaged
       Kinetic energy    (eV) =       0.311238          0.309567
       Potential energy  (eV) =    -385.609316       -385.745507
       Total energy      (eV) =    -385.298079       -385.435940
       Temperature       (K)  =     300.980029        299.364336
       C/S temperature   (K)  =       0.611159          0.766344
       Pressure         (GPa) =      -2.038593          0.196060
       Cell parameter : a (A) =       4.845096          4.849452
       Cell parameter : b (A) =       4.845039          4.845418
       Cell parameter : c (A) =       5.358986          5.360168
       Cell angle : alpha (o) =      90.110804         90.158316
       Cell angle : beta  (o) =      90.031894         89.966115
       Cell angle : gamma (o) =     119.921476        119.914307
       Cell volume :   (A**3) =     109.032146        109.169154
  ** Time :            0.10000 ps :
     Properties:                   Instantaneous       Averaged
       Kinetic energy    (eV) =       0.309671          0.309577
       Potential energy  (eV) =    -385.871597       -385.758116
       Total energy      (eV) =    -385.561926       -385.448539
       Temperature       (K)  =     299.464638        299.374366
       C/S temperature   (K)  =       0.815449          0.771254
       Pressure         (GPa) =      -1.829324         -0.005449
       Cell parameter : a (A) =       4.843328          4.848840
       Cell parameter : b (A) =       4.829026          4.843778
       Cell parameter : c (A) =       5.352028          5.359354
       Cell angle : alpha (o) =      89.958082         90.138292
       Cell angle : beta  (o) =      90.098188         89.979322
       Cell angle : gamma (o) =     120.005552        119.923431
       Cell volume :   (A**3) =     108.399543        109.092193
  ** Time :            0.11000 ps :
     Properties:                   Instantaneous       Averaged
       Kinetic energy    (eV) =       0.308271          0.309459
       Potential energy  (eV) =    -385.690519       -385.751971
       Total energy      (eV) =    -385.382247       -385.442512
       Temperature       (K)  =     298.111490        299.259559
       C/S temperature   (K)  =       0.507790          0.747303
       Pressure         (GPa) =      -0.120287         -0.015901
       Cell parameter : a (A) =       4.848710          4.848828
       Cell parameter : b (A) =       4.824417          4.842018
       Cell parameter : c (A) =       5.339821          5.357578
       Cell angle : alpha (o) =      89.992685         90.125055
       Cell angle : beta  (o) =      89.982744         89.979633
       Cell angle : gamma (o) =     120.044230        119.934413
       Cell volume :   (A**3) =     108.127105        109.004457
  ** Time :            0.12000 ps :
     Properties:                   Instantaneous       Averaged
       Kinetic energy    (eV) =       0.310476          0.309543
       Potential energy  (eV) =    -385.892682       -385.763697
       Total energy      (eV) =    -385.582207       -385.454153
       Temperature       (K)  =     300.243138        299.341524
       C/S temperature   (K)  =       0.934681          0.762918
       Pressure         (GPa) =       0.517715          0.028578
       Cell parameter : a (A) =       4.849742          4.848904
       Cell parameter : b (A) =       4.833380          4.841298
       Cell parameter : c (A) =       5.334082          5.355620
       Cell angle : alpha (o) =      90.175175         90.129232
       Cell angle : beta  (o) =      89.938439         89.976200
       Cell angle : gamma (o) =     120.068941        119.945623
       Cell volume :   (A**3) =     108.207080        108.938009
  ** Time :            0.13000 ps :
     Properties:                   Instantaneous       Averaged
       Kinetic energy    (eV) =       0.309337          0.309528
       Potential energy  (eV) =    -385.710587       -385.759611
       Total energy      (eV) =    -385.401250       -385.450084
       Temperature       (K)  =     299.142276        299.326197
       C/S temperature   (K)  =       0.633361          0.752952
       Pressure         (GPa) =       0.545503          0.068296
       Cell parameter : a (A) =       4.833607          4.847727
       Cell parameter : b (A) =       4.838180          4.841059
       Cell parameter : c (A) =       5.344108          5.354735
       Cell angle : alpha (o) =      90.293239         90.141848
       Cell angle : beta  (o) =      89.984457         89.976835
       Cell angle : gamma (o) =     119.852854        119.938487
       Cell volume :   (A**3) =     108.391218        108.895948
  ** Time :            0.14000 ps :
     Properties:                   Instantaneous       Averaged
       Kinetic energy    (eV) =       0.309707          0.309540
       Potential energy  (eV) =    -385.928188       -385.771653
       Total energy      (eV) =    -385.618481       -385.462112
       Temperature       (K)  =     299.500149        299.338622
       C/S temperature   (K)  =       0.851918          0.760021
       Pressure         (GPa) =      -0.137096          0.053615
       Cell parameter : a (A) =       4.823592          4.846004
       Cell parameter : b (A) =       4.835576          4.840667
       Cell parameter : c (A) =       5.353508          5.354647
       Cell angle : alpha (o) =      90.170131         90.143868
       Cell angle : beta  (o) =      90.006800         89.978976
       Cell angle : gamma (o) =     119.751959        119.925164
       Cell volume :   (A**3) =     108.408981        108.861165
  ** Time :            0.15000 ps :
     Properties:                   Instantaneous       Averaged
       Kinetic energy    (eV) =       0.308282          0.309456
       Potential energy  (eV) =    -385.643058       -385.763080
       Total energy      (eV) =    -385.334776       -385.453623
       Temperature       (K)  =     298.121448        299.257477
       C/S temperature   (K)  =       0.591358          0.748777
       Pressure         (GPa) =       0.387698          0.075865
       Cell parameter : a (A) =       4.837376          4.845428
       Cell parameter : b (A) =       4.838576          4.840528
       Cell parameter : c (A) =       5.346612          5.354112
       Cell angle : alpha (o) =      90.089002         90.140210
       Cell angle : beta  (o) =      89.964657         89.978021
       Cell angle : gamma (o) =     119.925175        119.925165
       Cell volume :   (A**3) =     108.458380        108.834313
  ** Time :            0.16000 ps :
     Properties:                   Instantaneous       Averaged
       Kinetic energy    (eV) =       0.311439          0.309580
       Potential energy  (eV) =    -385.763955       -385.763134
       Total energy      (eV) =    -385.452516       -385.453554
       Temperature       (K)  =     301.174559        299.377295
       C/S temperature   (K)  =       0.782600          0.750891
       Pressure         (GPa) =       0.116625          0.078370
       Cell parameter : a (A) =       4.844778          4.845388
       Cell parameter : b (A) =       4.843952          4.840742
       Cell parameter : c (A) =       5.336040          5.352982
       Cell angle : alpha (o) =      90.184325         90.142968
       Cell angle : beta  (o) =      89.921958         89.974517
       Cell angle : gamma (o) =     119.931075        119.925534
       Cell volume :   (A**3) =     108.523146        108.814865
  ** Time :            0.17000 ps :
     Properties:                   Instantaneous       Averaged
       Kinetic energy    (eV) =       0.308884          0.309539
       Potential energy  (eV) =    -385.826241       -385.766846
       Total energy      (eV) =    -385.517356       -385.457307
       Temperature       (K)  =     298.704231        299.337703
       C/S temperature   (K)  =       0.804185          0.754026
       Pressure         (GPa) =       0.539186          0.105425
       Cell parameter : a (A) =       4.836883          4.844887
       Cell parameter : b (A) =       4.841508          4.840787
       Cell parameter : c (A) =       5.344055          5.352457
       Cell angle : alpha (o) =      90.186272         90.145515
       Cell angle : beta  (o) =      89.944246         89.972737
       Cell angle : gamma (o) =     119.797601        119.918009
       Cell volume :   (A**3) =     108.599426        108.802192
  ** Time :            0.18000 ps :
     Properties:                   Instantaneous       Averaged
       Kinetic energy    (eV) =       0.310019          0.309566
       Potential energy  (eV) =    -385.877665       -385.773003
       Total energy      (eV) =    -385.567646       -385.463437
       Temperature       (K)  =     299.801880        299.363491
       C/S temperature   (K)  =       0.776809          0.755291
       Pressure         (GPa) =       0.627403          0.134258
       Cell parameter : a (A) =       4.836098          4.844399
       Cell parameter : b (A) =       4.843350          4.840929
       Cell parameter : c (A) =       5.354621          5.352577
       Cell angle : alpha (o) =      90.183171         90.147607
       Cell angle : beta  (o) =      89.923969         89.970027
       Cell angle : gamma (o) =     119.850805        119.914275
       Cell volume :   (A**3) =     108.779991        108.800958
  ** Time :            0.19000 ps :
     Properties:                   Instantaneous       Averaged
       Kinetic energy    (eV) =       0.307847          0.309476
       Potential energy  (eV) =    -385.530722       -385.760251
       Total energy      (eV) =    -385.222874       -385.450776
       Temperature       (K)  =     297.701179        299.276000
       C/S temperature   (K)  =       0.791196          0.757181
       Pressure         (GPa) =       1.490839          0.205316
       Cell parameter : a (A) =       4.840689          4.844204
       Cell parameter : b (A) =       4.852499          4.841538
       Cell parameter : c (A) =       5.353117          5.352606
       Cell angle : alpha (o) =      90.431034         90.162524
       Cell angle : beta  (o) =      89.836041         89.962975
       Cell angle : gamma (o) =     119.835525        119.910130
       Cell volume :   (A**3) =     109.072385        108.815244
  ** Time :            0.20000 ps :
     Properties:                   Instantaneous       Averaged
       Kinetic energy    (eV) =       0.311542          0.309579
       Potential energy  (eV) =    -385.933784       -385.768928
       Total energy      (eV) =    -385.622242       -385.459349
       Temperature       (K)  =     301.274505        299.375926
       C/S temperature   (K)  =       0.883133          0.763479
       Pressure         (GPa) =      -0.098393          0.189715
       Cell parameter : a (A) =       4.843007          4.844144
       Cell parameter : b (A) =       4.859054          4.842414
       Cell parameter : c (A) =       5.349882          5.352469
       Cell angle : alpha (o) =      90.630733         90.185935
       Cell angle : beta  (o) =      89.868296         89.958241
       Cell angle : gamma (o) =     119.740672        119.901657
       Cell volume :   (A**3) =     109.305346        108.839749
  ** Time :            0.21000 ps :
     Properties:                   Instantaneous       Averaged
       Kinetic energy    (eV) =       0.308356          0.309521
       Potential energy  (eV) =    -385.760444       -385.768524
       Total energy      (eV) =    -385.452088       -385.459003
       Temperature       (K)  =     298.193492        299.319619
       C/S temperature   (K)  =       0.894694          0.769727
       Pressure         (GPa) =      -0.762593          0.144575
       Cell parameter : a (A) =       4.839596          4.843927
       Cell parameter : b (A) =       4.856119          4.843066
       Cell parameter : c (A) =       5.352894          5.352490
       Cell angle : alpha (o) =      90.460347         90.199002
       Cell angle : beta  (o) =      89.944131         89.957569
       Cell angle : gamma (o) =     119.783833        119.896047
       Cell volume :   (A**3) =     109.179946        108.855949
  ** Time :            0.22000 ps :
     Properties:                   Instantaneous       Averaged
       Kinetic energy    (eV) =       0.310970          0.309587
       Potential energy  (eV) =    -385.760287       -385.768150
       Total energy      (eV) =    -385.449317       -385.458563
       Temperature       (K)  =     300.721408        299.383337
       C/S temperature   (K)  =       0.764812          0.769504
       Pressure         (GPa) =      -2.207844          0.038193
       Cell parameter : a (A) =       4.827812          4.843195
       Cell parameter : b (A) =       4.844634          4.843138
       Cell parameter : c (A) =       5.354406          5.352577
       Cell angle : alpha (o) =      90.150688         90.196806
       Cell angle : beta  (o) =      89.935407         89.956562
       Cell angle : gamma (o) =     119.729986        119.888498
       Cell volume :   (A**3) =     108.749421        108.851107
  ** Time :            0.23000 ps :
     Properties:                   Instantaneous       Averaged
       Kinetic energy    (eV) =       0.308219          0.309527
       Potential energy  (eV) =    -385.802064       -385.769624
       Total energy      (eV) =    -385.493846       -385.460097
       Temperature       (K)  =     298.060590        299.325826
       C/S temperature   (K)  =       0.800876          0.770868
       Pressure         (GPa) =      -1.161637         -0.013784
       Cell parameter : a (A) =       4.831027          4.842666
       Cell parameter : b (A) =       4.832889          4.842692
       Cell parameter : c (A) =       5.339897          5.352025
       Cell angle : alpha (o) =      90.111846         90.193112
       Cell angle : beta  (o) =      89.894929         89.953882
       Cell angle : gamma (o) =     119.801213        119.884703
       Cell volume :   (A**3) =     108.187020        108.822233
  ** Time :            0.24000 ps :
     Properties:                   Instantaneous       Averaged
       Kinetic energy    (eV) =       0.312241          0.309640
       Potential energy  (eV) =    -385.780213       -385.770065
       Total energy      (eV) =    -385.467971       -385.460425
       Temperature       (K)  =     301.950592        299.435192
       C/S temperature   (K)  =       0.843225          0.773883
       Pressure         (GPa) =       0.937365          0.025851
       Cell parameter : a (A) =       4.842808          4.842672
       Cell parameter : b (A) =       4.837020          4.842456
       Cell parameter : c (A) =       5.333706          5.351262
       Cell angle : alpha (o) =      90.225285         90.194452
       Cell angle : beta  (o) =      89.941545         89.953368
       Cell angle : gamma (o) =     119.984050        119.888843
       Cell volume :   (A**3) =     108.218396        108.797074
  ** Time :            0.25000 ps :
     Properties:                   Instantaneous       Averaged
       Kinetic energy    (eV) =       0.307431          0.309552
       Potential energy  (eV) =    -385.856198       -385.773511
       Total energy      (eV) =    -385.548767       -385.463959
       Temperature       (K)  =     297.298495        299.349724
       C/S temperature   (K)  =       0.777703          0.774035
       Pressure         (GPa) =       0.835424          0.058181
       Cell parameter : a (A) =       4.834244          4.842335
       Cell parameter : b (A) =       4.843703          4.842506
       Cell parameter : c (A) =       5.342380          5.350907
       Cell angle : alpha (o) =      90.255485         90.196894
       Cell angle : beta  (o) =      89.959806         89.953626
       Cell angle : gamma (o) =     119.892904        119.889005
       Cell volume :   (A**3) =     108.451150        108.783237
  ** Time :            0.26000 ps :
     Properties:                   Instantaneous       Averaged
       Kinetic energy    (eV) =       0.311492          0.309627
       Potential energy  (eV) =    -385.633219       -385.768115
       Total energy      (eV) =    -385.321727       -385.458488
       Temperature       (K)  =     301.226077        299.421891
       C/S temperature   (K)  =       0.839232          0.776543
       Pressure         (GPa) =       0.992315          0.093946
       Cell parameter : a (A) =       4.829450          4.841839
       Cell parameter : b (A) =       4.846391          4.842655
       Cell parameter : c (A) =       5.349663          5.350859
       Cell angle : alpha (o) =      90.258077         90.199247
       Cell angle : beta  (o) =      89.875992         89.950640
       Cell angle : gamma (o) =     119.693138        119.881472
       Cell volume :   (A**3) =     108.768551        108.782672
  ** Time :            0.27000 ps :
     Properties:                   Instantaneous       Averaged
       Kinetic energy    (eV) =       0.310658          0.309665
       Potential energy  (eV) =    -385.916342       -385.773605
       Total energy      (eV) =    -385.605684       -385.463940
       Temperature       (K)  =     300.419725        299.458848
       C/S temperature   (K)  =       0.928681          0.782178
       Pressure         (GPa) =      -0.380899          0.076314
       Cell parameter : a (A) =       4.842125          4.841850
       Cell parameter : b (A) =       4.846402          4.842794
       Cell parameter : c (A) =       5.345900          5.350675
       Cell angle : alpha (o) =      90.331366         90.204140
       Cell angle : beta  (o) =      89.860387         89.947297
       Cell angle : gamma (o) =     119.834558        119.879734
       Cell volume :   (A**3) =     108.823128        108.784170
  ** Time :            0.28000 ps :
     Properties:                   Instantaneous       Averaged
       Kinetic energy    (eV) =       0.307808          0.309598
       Potential energy  (eV) =    -385.694147       -385.770767
       Total energy      (eV) =    -385.386339       -385.461169
       Temperature       (K)  =     297.662996        299.394710
       C/S temperature   (K)  =       0.840872          0.784274
       Pressure         (GPa) =       0.193022          0.080511
       Cell parameter : a (A) =       4.844843          4.841957
       Cell parameter : b (A) =       4.845151          4.842878
       Cell parameter : c (A) =       5.345632          5.350495
       Cell angle : alpha (o) =      90.339395         90.208971
       Cell angle : beta  (o) =      89.890847         89.945281
       Cell angle : gamma (o) =     119.898707        119.880412
       Cell volume :   (A**3) =     108.780549        108.784041
  ** Time :            0.29000 ps :
     Properties:                   Instantaneous       Averaged
       Kinetic energy    (eV) =       0.311485          0.309663
       Potential energy  (eV) =    -385.840739       -385.773180
       Total energy      (eV) =    -385.529253       -385.463516
       Temperature       (K)  =     301.219322        299.457628
       C/S temperature   (K)  =       0.855307          0.786723
       Pressure         (GPa) =      -0.813267          0.049747
       Cell parameter : a (A) =       4.828819          4.841504
       Cell parameter : b (A) =       4.840559          4.842798
       Cell parameter : c (A) =       5.353606          5.350602
       Cell angle : alpha (o) =      90.204858         90.208829
       Cell angle : beta  (o) =      89.857429         89.942252
       Cell angle : gamma (o) =     119.694665        119.874007
       Cell volume :   (A**3) =     108.702262        108.781221
  ** Time :            0.30000 ps :
     Properties:                   Instantaneous       Averaged
       Kinetic energy    (eV) =       0.308619          0.309629
       Potential energy  (eV) =    -385.762753       -385.772832
       Total energy      (eV) =    -385.454134       -385.463204
       Temperature       (K)  =     298.447292        299.423950
       C/S temperature   (K)  =       0.811727          0.787557
       Pressure         (GPa) =       0.006118          0.048354
       Cell parameter : a (A) =       4.823305          4.840897
       Cell parameter : b (A) =       4.840707          4.842728
       Cell parameter : c (A) =       5.350543          5.350600
       Cell angle : alpha (o) =      90.158619         90.207155
       Cell angle : beta  (o) =      89.866923         89.939741
       Cell angle : gamma (o) =     119.654665        119.866695
       Cell volume :   (A**3) =     108.562760        108.773939
  ** Time :            0.31000 ps :
     Properties:                   Instantaneous       Averaged
       Kinetic energy    (eV) =       0.310645          0.309661
       Potential energy  (eV) =    -385.806997       -385.773934
       Total energy      (eV) =    -385.496352       -385.464273
       Temperature       (K)  =     300.407010        299.455662
       C/S temperature   (K)  =       0.864616          0.790043
       Pressure         (GPa) =       0.246254          0.054717
       Cell parameter : a (A) =       4.833125          4.840646
       Cell parameter : b (A) =       4.848092          4.842901
       Cell parameter : c (A) =       5.340259          5.350267
       Cell angle : alpha (o) =      90.353852         90.211887
       Cell angle : beta  (o) =      89.889353         89.938115
       Cell angle : gamma (o) =     119.772106        119.863644
       Cell volume :   (A**3) =     108.611522        108.768700
  ** Time :            0.32000 ps :
     Properties:                   Instantaneous       Averaged
       Kinetic energy    (eV) =       0.309273          0.309649
       Potential energy  (eV) =    -385.835315       -385.775852
       Total energy      (eV) =    -385.526042       -385.466203
       Temperature       (K)  =     299.080134        299.443927
       C/S temperature   (K)  =       0.845319          0.791770
       Pressure         (GPa) =       0.560750          0.070476
       Cell parameter : a (A) =       4.835112          4.840473
       Cell parameter : b (A) =       4.848144          4.843065
       Cell parameter : c (A) =       5.343058          5.350042
       Cell angle : alpha (o) =      90.407539         90.218001
       Cell angle : beta  (o) =      89.877279         89.936214
       Cell angle : gamma (o) =     119.762989        119.860499
       Cell volume :   (A**3) =     108.723466        108.767286
  ** Time :            0.33000 ps :
     Properties:                   Instantaneous       Averaged
       Kinetic energy    (eV) =       0.310390          0.309672
       Potential energy  (eV) =    -385.736467       -385.774659
       Total energy      (eV) =    -385.426077       -385.464987
       Temperature       (K)  =     300.160480        299.465640
       C/S temperature   (K)  =       0.879158          0.794418
       Pressure         (GPa) =       0.589593          0.086088
       Cell parameter : a (A) =       4.829570          4.840143
       Cell parameter : b (A) =       4.846713          4.843176
       Cell parameter : c (A) =       5.360243          5.350351
       Cell angle : alpha (o) =      90.165255         90.216403
       Cell angle : beta  (o) =      89.891379         89.934856
       Cell angle : gamma (o) =     119.767596        119.857684
       Cell volume :   (A**3) =     108.913400        108.771714
  ** Time :            0.34000 ps :
     Properties:                   Instantaneous       Averaged
       Kinetic energy    (eV) =       0.309362          0.309663
       Potential energy  (eV) =    -385.828948       -385.776256
       Total energy      (eV) =    -385.519586       -385.466593
       Temperature       (K)  =     299.166443        299.456840
       C/S temperature   (K)  =       0.847175          0.795970
       Pressure         (GPa) =      -0.429147          0.070923
       Cell parameter : a (A) =       4.829077          4.839817
       Cell parameter : b (A) =       4.848433          4.843330
       Cell parameter : c (A) =       5.358818          5.350600
       Cell angle : alpha (o) =      90.114243         90.213398
       Cell angle : beta  (o) =      89.907469         89.934050
       Cell angle : gamma (o) =     119.753866        119.854630
       Cell volume :   (A**3) =     108.927096        108.776284
  ** Time :            0.35000 ps :
     Properties:                   Instantaneous       Averaged
       Kinetic energy    (eV) =       0.310468          0.309686
       Potential energy  (eV) =    -385.821666       -385.777553
       Total energy      (eV) =    -385.511198       -385.467868
       Temperature       (K)  =     300.235330        299.479083
       C/S temperature   (K)  =       0.939629          0.800074
       Pressure         (GPa) =      -0.940630          0.042140
       Cell parameter : a (A) =       4.838575          4.839782
       Cell parameter : b (A) =       4.845210          4.843384
       Cell parameter : c (A) =       5.344469          5.350425
       Cell angle : alpha (o) =      90.252919         90.214528
       Cell angle : beta  (o) =      89.879887         89.932503
       Cell angle : gamma (o) =     119.786989        119.852697
       Cell volume :   (A**3) =     108.739983        108.775247
  ** Time :            0.36000 ps :
     Properties:                   Instantaneous       Averaged
       Kinetic energy    (eV) =       0.309825          0.309690
       Potential energy  (eV) =    -385.757173       -385.776987
       Total energy      (eV) =    -385.447348       -385.467298
       Temperature       (K)  =     299.613642        299.482821
       C/S temperature   (K)  =       0.812921          0.800431
       Pressure         (GPa) =      -1.055485          0.011771
       Cell parameter : a (A) =       4.840511          4.839802
       Cell parameter : b (A) =       4.838170          4.843239
       Cell parameter : c (A) =       5.341950          5.350189
       Cell angle : alpha (o) =      90.216229         90.214575
       Cell angle : beta  (o) =      89.888602         89.931283
       Cell angle : gamma (o) =     119.926636        119.854751
       Cell volume :   (A**3) =     108.422705        108.765454
  ** Time :            0.37000 ps :
     Properties:                   Instantaneous       Averaged
       Kinetic energy    (eV) =       0.310097          0.309701
       Potential energy  (eV) =    -385.817664       -385.778086
       Total energy      (eV) =    -385.507567       -385.468386
       Temperature       (K)  =     299.876535        299.493462
       C/S temperature   (K)  =       0.934132          0.804045
       Pressure         (GPa) =       0.213052          0.017225
       Cell parameter : a (A) =       4.825762          4.839423
       Cell parameter : b (A) =       4.834848          4.843012
       Cell parameter : c (A) =       5.352576          5.350254
       Cell angle : alpha (o) =      90.071405         90.210705
       Cell angle : beta  (o) =      89.927078         89.931169
       Cell angle : gamma (o) =     119.874956        119.855297
       Cell volume :   (A**3) =     108.289812        108.752599
  ** Time :            0.38000 ps :
     Properties:                   Instantaneous       Averaged
       Kinetic energy    (eV) =       0.309854          0.309705
       Potential energy  (eV) =    -385.826277       -385.779355
       Total energy      (eV) =    -385.516423       -385.469650
       Temperature       (K)  =     299.641760        299.497364
       C/S temperature   (K)  =       0.871364          0.805816
       Pressure         (GPa) =       0.652826          0.033929
       Cell parameter : a (A) =       4.823332          4.838999
       Cell parameter : b (A) =       4.839694          4.842925
       Cell parameter : c (A) =       5.349472          5.350233
       Cell angle : alpha (o) =      90.172905         90.209711
       Cell angle : beta  (o) =      89.916668         89.930788
       Cell angle : gamma (o) =     119.732838        119.852075
       Cell volume :   (A**3) =     108.434507        108.744228
  ** Time :            0.39000 ps :
     Properties:                   Instantaneous       Averaged
       Kinetic energy    (eV) =       0.309718          0.309705
       Potential energy  (eV) =    -385.709118       -385.777554
       Total energy      (eV) =    -385.399400       -385.467849
       Temperature       (K)  =     299.510344        299.497697
       C/S temperature   (K)  =       0.879568          0.807707
       Pressure         (GPa) =       0.808215          0.053712
       Cell parameter : a (A) =       4.835998          4.838922
       Cell parameter : b (A) =       4.847778          4.843050
       Cell parameter : c (A) =       5.341836          5.350018
       Cell angle : alpha (o) =      90.305310         90.212162
       Cell angle : beta  (o) =      89.898527         89.929961
       Cell angle : gamma (o) =     119.806116        119.850896
       Cell volume :   (A**3) =     108.664763        108.742190
  ** Time :            0.40000 ps :
     Properties:                   Instantaneous       Averaged
       Kinetic energy    (eV) =       0.310179          0.309717
       Potential energy  (eV) =    -385.894453       -385.780476
       Total energy      (eV) =    -385.584274       -385.470759
       Temperature       (K)  =     299.956054        299.509156
       C/S temperature   (K)  =       0.908997          0.810240
       Pressure         (GPa) =      -0.559329          0.038374
       Cell parameter : a (A) =       4.834551          4.838813
       Cell parameter : b (A) =       4.845990          4.843123
       Cell parameter : c (A) =       5.350503          5.350030
       Cell angle : alpha (o) =      90.193929         90.211706
       Cell angle : beta  (o) =      89.904279         89.929319
       Cell angle : gamma (o) =     119.879498        119.851611
       Cell volume :   (A**3) =     108.689463        108.740872
  ** Time :            0.41000 ps :
     Properties:                   Instantaneous       Averaged
       Kinetic energy    (eV) =       0.309393          0.309709
       Potential energy  (eV) =    -385.745976       -385.779635
       Total energy      (eV) =    -385.436583       -385.469926
       Temperature       (K)  =     299.195778        299.501513
       C/S temperature   (K)  =       0.908463          0.812635
       Pressure         (GPa) =      -0.187870          0.032899
       Cell parameter : a (A) =       4.829579          4.838588
       Cell parameter : b (A) =       4.837321          4.842982
       Cell parameter : c (A) =       5.355437          5.350162
       Cell angle : alpha (o) =      90.121371         90.209503
       Cell angle : beta  (o) =      89.888301         89.928318
       Cell angle : gamma (o) =     119.805009        119.850475
       Cell volume :   (A**3) =     108.564675        108.736575
  ** Time :            0.42000 ps :
     Properties:                   Instantaneous       Averaged
       Kinetic energy    (eV) =       0.310983          0.309739
       Potential energy  (eV) =    -385.812664       -385.780421
       Total energy      (eV) =    -385.501680       -385.470682
       Temperature       (K)  =     300.733749        299.530852
       C/S temperature   (K)  =       0.912157          0.815005
       Pressure         (GPa) =      -0.486131          0.020567
       Cell parameter : a (A) =       4.839093          4.838600
       Cell parameter : b (A) =       4.840724          4.842928
       Cell parameter : c (A) =       5.341963          5.349967
       Cell angle : alpha (o) =      90.269380         90.210928
       Cell angle : beta  (o) =      89.900990         89.927668
       Cell angle : gamma (o) =     119.899346        119.851638
       Cell volume :   (A**3) =     108.477696        108.730411
  ** Time :            0.43000 ps :
     Properties:                   Instantaneous       Averaged
       Kinetic energy    (eV) =       0.308688          0.309715
       Potential energy  (eV) =    -385.807633       -385.781054
       Total energy      (eV) =    -385.498945       -385.471339
       Temperature       (K)  =     298.514314        299.507211
       C/S temperature   (K)  =       0.892996          0.816819
       Pressure         (GPa) =      -0.032354          0.019353
       Cell parameter : a (A) =       4.840232          4.838638
       Cell parameter : b (A) =       4.846178          4.843003
       Cell parameter : c (A) =       5.333490          5.349583
       Cell angle : alpha (o) =      90.344454         90.214034
       Cell angle : beta  (o) =      89.898569         89.926991
       Cell angle : gamma (o) =     119.961030        119.854182
       Cell volume :   (A**3) =     108.385162        108.722382
  ** Time :            0.44000 ps :
     Properties:                   Instantaneous       Averaged
       Kinetic energy    (eV) =       0.311157          0.309748
       Potential energy  (eV) =    -385.740417       -385.780130
       Total energy      (eV) =    -385.429260       -385.470383
       Temperature       (K)  =     300.902046        299.538912
       C/S temperature   (K)  =       0.922862          0.819229
       Pressure         (GPa) =       0.479896          0.029807
       Cell parameter : a (A) =       4.825923          4.838349
       Cell parameter : b (A) =       4.839854          4.842932
       Cell parameter : c (A) =       5.351358          5.349624
       Cell angle : alpha (o) =      90.202647         90.213775
       Cell angle : beta  (o) =      89.887798         89.926100
       Cell angle : gamma (o) =     119.800023        119.852951
       Cell volume :   (A**3) =     108.461637        108.716456
  ** Time :            0.45000 ps :
     Properties:                   Instantaneous       Averaged
       Kinetic energy    (eV) =       0.309443          0.309741
       Potential energy  (eV) =    -385.861227       -385.781932
       Total energy      (eV) =    -385.551783       -385.472192
       Temperature       (K)  =     299.244838        299.532377
       C/S temperature   (K)  =       0.898290          0.820986
       Pressure         (GPa) =       0.081637          0.030937
       Cell parameter : a (A) =       4.823173          4.838012
       Cell parameter : b (A) =       4.835783          4.842773
       Cell parameter : c (A) =       5.360407          5.349863
       Cell angle : alpha (o) =      90.129076         90.211893
       Cell angle : beta  (o) =      89.919905         89.925962
       Cell angle : gamma (o) =     119.753135        119.850733
       Cell volume :   (A**3) =     108.543007        108.712601
  ** Time :            0.46000 ps :
     Properties:                   Instantaneous       Averaged
       Kinetic energy    (eV) =       0.309742          0.309741
       Potential energy  (eV) =    -385.733179       -385.780873
       Total energy      (eV) =    -385.423437       -385.471132
       Temperature       (K)  =     299.533372        299.532399
       C/S temperature   (K)  =       0.955192          0.823903
       Pressure         (GPa) =       0.567135          0.042569
       Cell parameter : a (A) =       4.838462          4.838021
       Cell parameter : b (A) =       4.844345          4.842807
       Cell parameter : c (A) =       5.346193          5.349784
       Cell angle : alpha (o) =      90.254380         90.212816
       Cell angle : beta  (o) =      89.908211         89.925576
       Cell angle : gamma (o) =     119.900626        119.851818
       Cell volume :   (A**3) =     108.629375        108.710792
  ** Time :            0.47000 ps :
     Properties:                   Instantaneous       Averaged
       Kinetic energy    (eV) =       0.311032          0.309768
       Potential energy  (eV) =    -385.843526       -385.782206
       Total energy      (eV) =    -385.532495       -385.472437
       Temperature       (K)  =     300.780611        299.558956
       C/S temperature   (K)  =       0.926783          0.826092
       Pressure         (GPa) =      -0.616154          0.028546
       Cell parameter : a (A) =       4.844749          4.838165
       Cell parameter : b (A) =       4.845982          4.842875
       Cell parameter : c (A) =       5.340037          5.349576
       Cell angle : alpha (o) =      90.265649         90.213940
       Cell angle : beta  (o) =      89.845713         89.923877
       Cell angle : gamma (o) =     119.929160        119.853463
       Cell volume :   (A**3) =     108.650775        108.709515
  ** Time :            0.48000 ps :
     Properties:                   Instantaneous       Averaged
       Kinetic energy    (eV) =       0.308937          0.309751
       Potential energy  (eV) =    -385.783111       -385.782225
       Total energy      (eV) =    -385.474174       -385.472474
       Temperature       (K)  =     298.755382        299.542215
       C/S temperature   (K)  =       0.964563          0.828977
       Pressure         (GPa) =      -0.235445          0.023089
       Cell parameter : a (A) =       4.830391          4.838003
       Cell parameter : b (A) =       4.838603          4.842786
       Cell parameter : c (A) =       5.352458          5.349636
       Cell angle : alpha (o) =      90.094626         90.211455
       Cell angle : beta  (o) =      89.905474         89.923494
       Cell angle : gamma (o) =     119.868158        119.853770
       Cell volume :   (A**3) =     108.482788        108.704792
  ** Time :            0.49000 ps :
     Properties:                   Instantaneous       Averaged
       Kinetic energy    (eV) =       0.310889          0.309774
       Potential energy  (eV) =    -385.742610       -385.781416
       Total energy      (eV) =    -385.431720       -385.471642
       Temperature       (K)  =     300.643227        299.564685
       C/S temperature   (K)  =       0.940834          0.831260
       Pressure         (GPa) =      -0.084917          0.020889
       Cell parameter : a (A) =       4.828121          4.837801
       Cell parameter : b (A) =       4.840748          4.842744
       Cell parameter : c (A) =       5.351416          5.349673
       Cell angle : alpha (o) =      90.132523         90.209844
       Cell angle : beta  (o) =      89.954080         89.924118
       Cell angle : gamma (o) =     119.865874        119.854017
       Cell volume :   (A**3) =     108.461117        108.699819
  ** Time :            0.50000 ps :
     Properties:                   Instantaneous       Averaged
       Kinetic energy    (eV) =       0.310191          0.309782
       Potential energy  (eV) =    -385.868283       -385.783153
       Total energy      (eV) =    -385.558092       -385.473371
       Temperature       (K)  =     299.967612        299.572743
       C/S temperature   (K)  =       0.986521          0.834365
       Pressure         (GPa) =      -0.047205          0.019532
       Cell parameter : a (A) =       4.841002          4.837865
       Cell parameter : b (A) =       4.843654          4.842762
       Cell parameter : c (A) =       5.335890          5.349397
       Cell angle : alpha (o) =      90.306835         90.211784
       Cell angle : beta  (o) =      89.888567         89.923407
       Cell angle : gamma (o) =     119.921205        119.855360
       Cell volume :   (A**3) =     108.438585        108.694594

  Molecular dynamics production :

  ** Time :            0.01000 ps :
     Properties:                   Instantaneous       Averaged
       Kinetic energy    (eV) =       0.312511          0.312511
       Potential energy  (eV) =    -385.717096       -385.717096
       Total energy      (eV) =    -385.404585       -385.404585
       Temperature       (K)  =     302.210899        302.210899
       C/S temperature   (K)  =       0.840069          0.840069
       Pressure         (GPa) =      -0.146982         -0.146982
       Cell parameter : a (A) =       4.726432          4.726432
       Cell parameter : b (A) =       4.844440          4.844440
       Cell parameter : c (A) =       5.451282          5.451282
       Cell angle : alpha (o) =      89.496848         89.496848
       Cell angle : beta  (o) =      89.540286         89.540286
       Cell angle : gamma (o) =     119.552087        119.552087
       Cell volume :   (A**3) =     108.564625        108.564625
  ** Time :            0.02000 ps :
     Properties:                   Instantaneous       Averaged
       Kinetic energy    (eV) =       0.309366          0.310938
       Potential energy  (eV) =    -385.409545       -385.563321
       Total energy      (eV) =    -385.100180       -385.252382
       Temperature       (K)  =     299.169514        300.690206
       C/S temperature   (K)  =       0.833108          0.836589
       Pressure         (GPa) =       0.100900         -0.022767
       Cell parameter : a (A) =       4.886957          4.806695
       Cell parameter : b (A) =       4.749898          4.797169
       Cell parameter : c (A) =       5.621808          5.536545
       Cell angle : alpha (o) =      88.530723         89.013785
       Cell angle : beta  (o) =      92.348316         90.944301
       Cell angle : gamma (o) =     123.305277        121.428682
       Cell volume :   (A**3) =     108.970978        108.767802
  ** Time :            0.03000 ps :
     Properties:                   Instantaneous       Averaged
       Kinetic energy    (eV) =       0.310285          0.310720
       Potential energy  (eV) =    -384.018095       -385.048245
       Total energy      (eV) =    -383.707810       -384.737525
       Temperature       (K)  =     300.058724        300.479712
       C/S temperature   (K)  =       0.253353          0.642177
       Pressure         (GPa) =       5.219377          1.723343
       Cell parameter : a (A) =       4.415953          4.676448
       Cell parameter : b (A) =       4.921244          4.838528
       Cell parameter : c (A) =       5.051337          5.374809
       Cell angle : alpha (o) =      91.592483         89.873351
       Cell angle : beta  (o) =      84.727352         88.871984
       Cell angle : gamma (o) =     113.092844        118.650069
       Cell volume :   (A**3) =     100.547959        106.027854
  ** Time :            0.04000 ps :
     Properties:                   Instantaneous       Averaged
       Kinetic energy    (eV) =       0.311078          0.310810
       Potential energy  (eV) =    -384.945308       -385.022511
       Total energy      (eV) =    -384.634230       -384.711701
       Temperature       (K)  =     300.825805        300.566236
       C/S temperature   (K)  =       0.390375          0.579226
       Pressure         (GPa) =      -0.633492          1.025109
       Cell parameter : a (A) =       4.943155          4.743125
       Cell parameter : b (A) =       4.846905          4.840622
       Cell parameter : c (A) =       5.398147          5.380643
       Cell angle : alpha (o) =      88.032699         89.413188
       Cell angle : beta  (o) =      92.992144         89.902024
       Cell angle : gamma (o) =     121.763007        119.428304
       Cell volume :   (A**3) =     109.810689        106.973563
  ** Time :            0.05000 ps :
     Properties:                   Instantaneous       Averaged
       Kinetic energy    (eV) =       0.310048          0.310658
       Potential energy  (eV) =    -385.110517       -385.040112
       Total energy      (eV) =    -384.800469       -384.729455
       Temperature       (K)  =     299.829836        300.418956
       C/S temperature   (K)  =       0.330570          0.529495
       Pressure         (GPa) =      -4.032672          0.034666
       Cell parameter : a (A) =       4.701821          4.734864
       Cell parameter : b (A) =       4.878600          4.848218
       Cell parameter : c (A) =       5.314095          5.367334
       Cell angle : alpha (o) =      92.599028         90.050356
       Cell angle : beta  (o) =      85.739658         89.069551
       Cell angle : gamma (o) =     118.268899        119.196423
       Cell volume :   (A**3) =     107.054482        106.989747
  ** Time :            0.06000 ps :
     Properties:                   Instantaneous       Averaged
       Kinetic energy    (eV) =       0.307178          0.310078
       Potential energy  (eV) =    -385.614992       -385.135926
       Total energy      (eV) =    -385.307814       -384.825848
       Temperature       (K)  =     297.054191        299.858162
       C/S temperature   (K)  =       0.781985          0.571577
       Pressure         (GPa) =      -3.292351         -0.520177
       Cell parameter : a (A) =       5.065820          4.790023
       Cell parameter : b (A) =       4.757044          4.833022
       Cell parameter : c (A) =       5.401732          5.373067
       Cell angle : alpha (o) =      92.584489         90.472712
       Cell angle : beta  (o) =      88.991026         89.056464
       Cell angle : gamma (o) =     123.582329        119.927407
       Cell volume :   (A**3) =     108.331303        107.213340
  ** Time :            0.07000 ps :
     Properties:                   Instantaneous       Averaged
       Kinetic energy    (eV) =       0.306140          0.309515
       Potential energy  (eV) =    -384.868095       -385.097664
       Total energy      (eV) =    -384.561955       -384.788149
       Temperature       (K)  =     296.050216        299.314169
       C/S temperature   (K)  =       0.528990          0.565493
       Pressure         (GPa) =       4.407176          0.179457
       Cell parameter : a (A) =       5.012885          4.821861
       Cell parameter : b (A) =       4.763883          4.823145
       Cell parameter : c (A) =       5.413734          5.378876
       Cell angle : alpha (o) =      89.062819         90.271298
       Cell angle : beta  (o) =      92.875961         89.602106
       Cell angle : gamma (o) =     123.787768        120.478887
       Cell volume :   (A**3) =     107.302876        107.226130
  ** Time :            0.08000 ps :
     Properties:                   Instantaneous       Averaged
       Kinetic energy    (eV) =       0.311379          0.309748
       Potential energy  (eV) =    -385.281526       -385.120647
       Total energy      (eV) =    -384.970146       -384.810899
       Temperature       (K)  =     301.116983        299.539521
       C/S temperature   (K)  =       0.728916          0.585921
       Pressure         (GPa) =       6.449220          0.967694
       Cell parameter : a (A) =       4.595733          4.793595
       Cell parameter : b (A) =       4.902826          4.833105
       Cell parameter : c (A) =       5.213113          5.358156
       Cell angle : alpha (o) =      90.411991         90.288885
       Cell angle : beta  (o) =      87.945153         89.394987
       Cell angle : gamma (o) =     117.303441        120.081956
       Cell volume :   (A**3) =     104.302977        106.860736
  ** Time :            0.09000 ps :
     Properties:                   Instantaneous       Averaged
       Kinetic energy    (eV) =       0.312506          0.310055
       Potential energy  (eV) =    -385.568814       -385.170443
       Total energy      (eV) =    -385.256309       -384.860389
       Temperature       (K)  =     302.206021        299.835799
       C/S temperature   (K)  =       0.724383          0.601305
       Pressure         (GPa) =      -1.727100          0.619953
       Cell parameter : a (A) =       4.997190          4.816216
       Cell parameter : b (A) =       4.843316          4.834240
       Cell parameter : c (A) =       5.428443          5.365966
       Cell angle : alpha (o) =      89.526459         90.204171
       Cell angle : beta  (o) =      91.332077         89.610219
       Cell angle : gamma (o) =     122.715570        120.374580
       Cell volume :   (A**3) =     110.510801        107.266299
  ** Time :            0.10000 ps :
     Properties:                   Instantaneous       Averaged
       Kinetic energy    (eV) =       0.312246          0.310274
       Potential energy  (eV) =    -385.079765       -385.161375
       Total energy      (eV) =    -384.767519       -384.851102
       Temperature       (K)  =     301.955410        300.047760
       C/S temperature   (K)  =       0.516802          0.592855
       Pressure         (GPa) =      -5.454262          0.023093
       Cell parameter : a (A) =       4.756205          4.810215
       Cell parameter : b (A) =       4.928402          4.843656
       Cell parameter : c (A) =       5.233060          5.352675
       Cell angle : alpha (o) =      92.341612         90.417915
       Cell angle : beta  (o) =      85.323324         89.181530
       Cell angle : gamma (o) =     117.484516        120.085574
       Cell volume :   (A**3) =     108.457893        107.385458
  ** Time :            0.11000 ps :
     Properties:                   Instantaneous       Averaged
       Kinetic energy    (eV) =       0.313573          0.310574
       Potential energy  (eV) =    -385.024995       -385.148977
       Total energy      (eV) =    -384.711422       -384.838404
       Temperature       (K)  =     303.238420        300.337820
       C/S temperature   (K)  =       0.416040          0.576781
       Pressure         (GPa) =      -3.777858         -0.323109
       Cell parameter : a (A) =       4.958151          4.823664
       Cell parameter : b (A) =       4.859131          4.845063
       Cell parameter : c (A) =       5.430260          5.359728
       Cell angle : alpha (o) =      88.338825         90.228907
       Cell angle : beta  (o) =      92.138152         89.450314
       Cell angle : gamma (o) =     121.064700        120.174585
       Cell volume :   (A**3) =     111.979617        107.803109
  ** Time :            0.12000 ps :
     Properties:                   Instantaneous       Averaged
       Kinetic energy    (eV) =       0.308765          0.310423
       Potential energy  (eV) =    -385.419090       -385.171487
       Total energy      (eV) =    -385.110325       -384.861064
       Temperature       (K)  =     298.589057        300.192090
       C/S temperature   (K)  =       0.652341          0.583078
       Pressure         (GPa) =       2.462823         -0.106244
       Cell parameter : a (A) =       4.682106          4.811867
       Cell parameter : b (A) =       4.756386          4.837673
       Cell parameter : c (A) =       5.307303          5.355359
       Cell angle : alpha (o) =      90.164335         90.223526
       Cell angle : beta  (o) =      88.682409         89.386322
       Cell angle : gamma (o) =     115.687810        119.800687
       Cell volume :   (A**3) =     106.480562        107.692897
  ** Time :            0.13000 ps :
     Properties:                   Instantaneous       Averaged
       Kinetic energy    (eV) =       0.307806          0.310222
       Potential energy  (eV) =    -384.748519       -385.138951
       Total energy      (eV) =    -384.440713       -384.828729
       Temperature       (K)  =     297.661367        299.997419
       C/S temperature   (K)  =       0.440671          0.572123
       Pressure         (GPa) =       2.188719          0.069705
       Cell parameter : a (A) =       5.022408          4.828063
       Cell parameter : b (A) =       4.578362          4.817726
       Cell parameter : c (A) =       5.710201          5.382655
       Cell angle : alpha (o) =      88.959458         90.126290
       Cell angle : beta  (o) =      92.653956         89.637678
       Cell angle : gamma (o) =     126.191053        120.292254
       Cell volume :   (A**3) =     105.847603        107.550951
  ** Time :            0.14000 ps :
     Properties:                   Instantaneous       Averaged
       Kinetic energy    (eV) =       0.311047          0.310281
       Potential energy  (eV) =    -385.113846       -385.137158
       Total energy      (eV) =    -384.802800       -384.826877
       Temperature       (K)  =     300.795240        300.054406
       C/S temperature   (K)  =       0.238859          0.548319
       Pressure         (GPa) =      -0.387551          0.035279
       Cell parameter : a (A) =       4.871997          4.831201
       Cell parameter : b (A) =       5.046339          4.834056
       Cell parameter : c (A) =       5.118168          5.363763
       Cell angle : alpha (o) =      89.977620         90.115671
       Cell angle : beta  (o) =      88.836229         89.580432
       Cell angle : gamma (o) =     120.118353        120.279832
       Cell volume :   (A**3) =     108.814624        107.641214
  ** Time :            0.15000 ps :
     Properties:                   Instantaneous       Averaged
       Kinetic energy    (eV) =       0.307310          0.310083
       Potential energy  (eV) =    -385.517770       -385.162532
       Total energy      (eV) =    -385.210460       -384.852449
       Temperature       (K)  =     297.181839        299.862901
       C/S temperature   (K)  =       0.777860          0.563621
       Pressure         (GPa) =       2.294644          0.186814
       Cell parameter : a (A) =       4.623798          4.817374
       Cell parameter : b (A) =       4.898466          4.838350
       Cell parameter : c (A) =       5.268752          5.357429
       Cell angle : alpha (o) =      91.433052         90.203496
       Cell angle : beta  (o) =      87.239687         89.424382
       Cell angle : gamma (o) =     117.332030        120.083312
       Cell volume :   (A**3) =     105.888686        107.524378
  ** Time :            0.16000 ps :
     Properties:                   Instantaneous       Averaged
       Kinetic energy    (eV) =       0.312090          0.310208
       Potential energy  (eV) =    -385.242662       -385.167540
       Total energy      (eV) =    -384.930572       -384.857332
       Temperature       (K)  =     301.804290        299.984238
       C/S temperature   (K)  =       0.364733          0.551191
       Pressure         (GPa) =       1.072532          0.237063
       Cell parameter : a (A) =       4.993123          4.828358
       Cell parameter : b (A) =       4.757306          4.833284
       Cell parameter : c (A) =       5.475886          5.364832
       Cell angle : alpha (o) =      89.602203         90.165915
       Cell angle : beta  (o) =      92.135795         89.593845
       Cell angle : gamma (o) =     122.942570        120.262016
       Cell volume :   (A**3) =     109.069910        107.620974
  ** Time :            0.17000 ps :
     Properties:                   Instantaneous       Averaged
       Kinetic energy    (eV) =       0.311725          0.310297
       Potential energy  (eV) =    -384.955189       -385.155049
       Total energy      (eV) =    -384.643464       -384.844751
       Temperature       (K)  =     301.451180        300.070529
       C/S temperature   (K)  =       0.441246          0.544724
       Pressure         (GPa) =      -2.317958          0.090248
       Cell parameter : a (A) =       4.675216          4.819350
       Cell parameter : b (A) =       4.906336          4.837582
       Cell parameter : c (A) =       5.221385          5.356394
       Cell angle : alpha (o) =      91.852620         90.265133
       Cell angle : beta  (o) =      85.858359         89.374111
       Cell angle : gamma (o) =     115.969148        120.009494
       Cell volume :   (A**3) =     107.394754        107.607667
  ** Time :            0.18000 ps :
     Properties:                   Instantaneous       Averaged
       Kinetic energy    (eV) =       0.312808          0.310437
       Potential energy  (eV) =    -384.461450       -385.116515
       Total energy      (eV) =    -384.148642       -384.806079
       Temperature       (K)  =     302.498858        300.205436
       C/S temperature   (K)  =       0.454011          0.539684
       Pressure         (GPa) =      -0.307592          0.067512
       Cell parameter : a (A) =       4.973596          4.827919
       Cell parameter : b (A) =       4.586740          4.823646
       Cell parameter : c (A) =       5.757826          5.378696
       Cell angle : alpha (o) =      88.334888         90.157897
       Cell angle : beta  (o) =      93.200795         89.586704
       Cell angle : gamma (o) =     124.408127        120.253863
       Cell volume :   (A**3) =     108.199346        107.640538
  ** Time :            0.19000 ps :
     Properties:                   Instantaneous       Averaged
       Kinetic energy    (eV) =       0.309377          0.310381
       Potential energy  (eV) =    -385.569244       -385.140343
       Total energy      (eV) =    -385.259868       -384.829962
       Temperature       (K)  =     299.180204        300.151477
       C/S temperature   (K)  =       0.836674          0.555315
       Pressure         (GPa) =       5.067058          0.331905
       Cell parameter : a (A) =       4.826349          4.827837
       Cell parameter : b (A) =       4.948745          4.830230
       Cell parameter : c (A) =       5.059237          5.361883
       Cell angle : alpha (o) =      89.303437         90.112926
       Cell angle : beta  (o) =      88.583470         89.533903
       Cell angle : gamma (o) =     118.511699        120.162170
       Cell volume :   (A**3) =     106.109654        107.559965
  ** Time :            0.20000 ps :
     Properties:                   Instantaneous       Averaged
       Kinetic energy    (eV) =       0.309387          0.310331
       Potential energy  (eV) =    -385.800712       -385.173362
       Total energy      (eV) =    -385.491325       -384.863030
       Temperature       (K)  =     299.189887        300.103397
       C/S temperature   (K)  =       0.764949          0.565797
       Pressure         (GPa) =       1.500784          0.380609
       Cell parameter : a (A) =       4.912892          4.832089
       Cell parameter : b (A) =       4.937075          4.835572
       Cell parameter : c (A) =       5.306165          5.359097
       Cell angle : alpha (o) =      88.734081         90.043984
       Cell angle : beta  (o) =      90.324223         89.573419
       Cell angle : gamma (o) =     121.683317        120.238227
       Cell volume :   (A**3) =     109.491999        107.656567

  Peak dynamic memory used =       1.85 MB 


  Timing analysis for GULP :

--------------------------------------------------------------------------------
  Task / Subroutine                                          Time (Seconds)
--------------------------------------------------------------------------------
  Calculation of reciprocal space energy and derivatives          0.6086
  Calculation of real space energy and derivatives                6.4434
  Calculation of three-body energy and derivatives                0.0213
  Calculation of matrix inversion                                 0.0036
  Symmetry generation of equivalent positions                     0.0003
  Molecular dynamics - update of geometry                         0.0172
  Molecular dynamics - predictor                                  0.0028
  Molecular dynamics - corrector                                  0.0187
  Molecular dynamics - velocity correction                        0.0124
  Global summation overhead                                       0.0035
--------------------------------------------------------------------------------
  Total CPU time                                                  7.1632
--------------------------------------------------------------------------------


  GULP trajectory file written as example16.trg


  Job Finished at 11:39.37  8th July       2020                               

