********************************************************************************
*                       GENERAL UTILITY LATTICE PROGRAM                        *
*                                 Julian Gale                                  *
*                       Curtin Institute for Computation                       *
*                    School of Molecular and Life Sciences                     *
*                    Curtin University, Western Australia                      *
********************************************************************************
* Version = 6.0.0 * Last modified =   7th July 2020                            *
********************************************************************************
*  optimise     - perform optimisation run                                     *
*  conp         - constant pressure calculation                                *
*  ocell        - use cell parameters as the optimisation variables            *
*  c6           - use real and reciprocal space sum for C6 terms               *
*  property     - calculate properties for final geometry                      *
*  molecule     - molecule option activated, Coulomb subtract within molecule  *
*  fix_molecule - fix atoms of molecule as at the start of the run             *
*  rigid        - molecules will be treated as rigid bodies                    *
*  prt_var      - print list of optimisation variables                         *
********************************************************************************
* example of a molecular crystal - urea                                        *
********************************************************************************


  Job Started  at 16:03.41  8th July       2020                               

  Number of CPUs =     1

  Host name      = M-A0034725                              


  Total number of configurations input =      1

********************************************************************************
*  Input for Configuration =   1                                               *
********************************************************************************

  Formula = C2O2N4H8                                                    

  Number of irreducible atoms/shells =       5


  Total number atoms/shells =      16

  Dimensionality = 3               :  Bulk   


  Symmetry :

  Crystal family                   :  Tetragonal  
  Crystal class  (Groth - 1921)    :  Tetragonal Scalenohedral             

  Space group (noncentrosymmetric) :  P -4 21 M       

  Patterson group                  :  P 4/m m m

  Cartesian lattice vectors (Angstroms) :

        5.565000    0.000000    0.000000
        0.000000    5.565000    0.000000
        0.000000    0.000000    4.684000

  Cell parameters (Angstroms/Degrees):

  a =       5.5650    alpha =  90.0000
  b =       5.5650    beta  =  90.0000
  c =       4.6840    gamma =  90.0000

  Initial cell volume =         145.059850 Angs**3

  Temperature of configuration =   0.00     K 

  Pressure of configuration =         1.000 GPa 

  Fractional coordinates of asymmetric unit :

--------------------------------------------------------------------------------
   No.  Atomic       x           y          z         Charge      Occupancy
        Label      (Frac)      (Frac)     (Frac)        (e)         (Frac)  
--------------------------------------------------------------------------------
      1 C     c    0.000000    0.500000    0.326000     0.38000    1.000000    
      2 O     c    0.000000    0.500000    0.595300    -0.38000    1.000000    
      3 N     c    0.145900    0.645900    0.176600    -0.83000    1.000000    
      4 H     c    0.257500    0.757500    0.282700     0.41500    1.000000    
      5 H     c    0.144100    0.644100    0.962000     0.41500    1.000000    
--------------------------------------------------------------------------------



  Molecule list generated from bond lengths :

  Total number of molecules =     2

--------------------------------------------------------------------------------
Molecule No./:  Atoms
Periodicity  :  
--------------------------------------------------------------------------------
     1  0    : C    c     1 O    c     3 N    c     5 N    c     6 H    c     9
             : H    c    10 H    c    13 H    c    14
     2  0    : C    c     2 O    c     4 N    c     7 N    c     8 H    c    11
             : H    c    12 H    c    15 H    c    16
--------------------------------------------------------------------------------

  Constraints : 

--------------------------------------------------------------------------------
  Constraint no.      Unconstrained     Constrained    Coefficient    Offset
                         Variable         Variable
--------------------------------------------------------------------------------
           1              Cell   1        Cell   2       1.00000      0.0000
--------------------------------------------------------------------------------


********************************************************************************
*  General input information                                                   *
********************************************************************************

  Species output for all configurations : 

--------------------------------------------------------------------------------
  Species    Type    Atomic    Atomic    Charge       Radii (Angs)     Library
                     Number     Mass       (e)     Cova   Ionic  VDW   Symbol
--------------------------------------------------------------------------------
    C        Core        6      12.01   0.380000   0.770  0.000  1.530          
    O        Core        8      16.00  -0.380000   0.730  0.000  1.360          
    N        Core        7      14.01  -0.830000   0.750  0.000  1.480          
    H        Core        1       1.01   0.415000   0.370  0.000  1.080          
--------------------------------------------------------------------------------


  Lattice summation method               =    Ewald          (3-D)
                                         =    Parry          (2-D)
                                         =    Saunders et al (1-D)
  Accuracy factor for lattice sums       =   12.000


  Analytic derivatives to be used

  Time limit = Infinity

  Maximum range for interatomic potentials =    100000.000000 Angstroms

  C6 terms to be calculated in real and reciprocal space 

  Intermolecular potentials :

--------------------------------------------------------------------------------
Atom  Types   Potential      Parameter       Value         Units   Cutoffs(Ang)
  1     2                                                            Min /  Max 
--------------------------------------------------------------------------------
C    c O    c Lennard       Lennard-Jones A  39031.570    eV*Ang^m  0.000 40.000
                            Lennard-Jones B  35.266000    eV*Ang^n  
                            Exponent m        12          None
                            Exponent n         6          None
--------------------------------------------------------------------------------
C    c N    c Lennard       Lennard-Jones A  112494.67    eV*Ang^m  0.000 40.000
                            Lennard-Jones B  55.387000    eV*Ang^n  
                            Exponent m        12          None
                            Exponent n         6          None
--------------------------------------------------------------------------------
O    c O    c Lennard       Lennard-Jones A  11833.864    eV*Ang^m  0.000 40.000
                            Lennard-Jones B  21.633000    eV*Ang^n  
                            Exponent m        12          None
                            Exponent n         6          None
--------------------------------------------------------------------------------
N    c O    c Lennard       Lennard-Jones A  34106.919    eV*Ang^m  0.000 40.000
                            Lennard-Jones B  33.977000    eV*Ang^n  
                            Exponent m        12          None
                            Exponent n         6          None
--------------------------------------------------------------------------------
N    c N    c Lennard       Lennard-Jones A  98301.108    eV*Ang^m  0.000 40.000
                            Lennard-Jones B  53.362000    eV*Ang^n  
                            Exponent m        12          None
                            Exponent n         6          None
--------------------------------------------------------------------------------
C    c C    c Lennard       Lennard-Jones A  128737.61    eV*Ang^m  0.000 40.000
                            Lennard-Jones B  57.488000    eV*Ang^n  
                            Exponent m        12          None
                            Exponent n         6          None
--------------------------------------------------------------------------------

********************************************************************************
*  Output for configuration   1                                                *
********************************************************************************


  Components of enthalpy : 

--------------------------------------------------------------------------------
  Interatomic potentials     =           1.20081803 eV    
  Monopole - monopole (real) =          14.77473592 eV    
  Monopole - monopole (recip)=         -16.22998429 eV    
  Monopole - monopole (total)=          -1.45524837 eV    
  Dispersion (real+recip)    =          -1.71314032 eV    
  Pressure*volume            =           0.90538538 eV    
--------------------------------------------------------------------------------
  Total lattice enthalpy     =          -1.06218528 eV    
--------------------------------------------------------------------------------
  Total lattice enthalpy     =            -102.4846 kJ/(mole unit cells)
--------------------------------------------------------------------------------

  Optimisation variables and initial values:

--------------------------------------------------------------------------------
     Variable No.       Variable type             Index        Initial value    
--------------------------------------------------------------------------------
             1          Z centre of mass                 1        0.314345
             2          Cell parameter                   1        5.565000
             3          Cell parameter                   3        4.684000
--------------------------------------------------------------------------------



  Number of variables =        3

  Maximum number of calculations  =          1000
  Maximum Hessian update interval =            10
  Maximum step size               =   1.000000000
  Maximum parameter tolerance     =   0.000010000
  Maximum function  tolerance     =   0.000010000
  Maximum gradient  tolerance     =   0.001000000
  Maximum gradient  component     =   0.010000000

  Symmetry constrained optimisation

  Cell parameters to be optimised directly

  Newton-Raphson optimiser to be used

  BFGS hessian update to be used

  Lower half triangular hessian to be used

  Dumpfile to be written after every cycle

  Start of bulk optimisation :

  Cycle:      0 Energy:        -1.062185  Gnorm:      1.087963  CPU:    0.028
  ** Hessian calculated **
  Cycle:      1 Energy:        -1.116095  Gnorm:      0.064120  CPU:    0.039
  Cycle:      2 Energy:        -1.119843  Gnorm:      0.054438  CPU:    0.050
  Cycle:      3 Energy:        -1.119975  Gnorm:      0.025787  CPU:    0.060
  Cycle:      4 Energy:        -1.119988  Gnorm:      0.002366  CPU:    0.070


  **** Optimisation achieved ****


  Final enthalpy =      -1.11998951 eV
  Final Gnorm    =       0.00000389

  Components of enthalpy : 

--------------------------------------------------------------------------------
  Interatomic potentials     =           1.34206639 eV    
  Monopole - monopole (real) =          14.85746032 eV    
  Monopole - monopole (recip)=         -16.38720222 eV    
  Monopole - monopole (total)=          -1.52974190 eV    
  Dispersion (real+recip)    =          -1.81185897 eV    
  Pressure*volume            =           0.87954497 eV    
--------------------------------------------------------------------------------
  Total lattice enthalpy     =          -1.11998951 eV    
--------------------------------------------------------------------------------
  Total lattice enthalpy     =            -108.0619 kJ/(mole unit cells)
--------------------------------------------------------------------------------

  Final asymmetric unit coordinates :

--------------------------------------------------------------------------------
   No.  Atomic        x           y           z         Radius
        Label       (Frac)      (Frac)      (Frac)       (Angs) 
--------------------------------------------------------------------------------
     1  C     c     0.000000    0.500000    0.342018    0.000000
     2  O     c     0.000000    0.500000    0.606824    0.000000
     3  N     c     0.149278    0.649278    0.195111    0.000000
     4  H     c     0.263463    0.763463    0.299440    0.000000
     5  H     c     0.147437    0.647437    0.984092    0.000000
--------------------------------------------------------------------------------

  Final Cartesian lattice vectors (Angstroms) :

        5.439055    0.000000    0.000000
        0.000000    5.439055    0.000000
        0.000000    0.000000    4.763486


  Final cell parameters and derivatives :

--------------------------------------------------------------------------------
       a            5.439055 Angstrom     dE/a        -0.000005 eV/Ang
       b            5.439055 Angstrom     dE/b         0.000000 eV/Ang
       c            4.763486 Angstrom     dE/c        -0.000008 eV/Ang
       alpha       90.000000 Degrees      dE/alpha     0.000000 eV/Deg
       beta        90.000000 Degrees      dE/beta      0.000000 eV/Deg
       gamma       90.000000 Degrees      dE/gamma     0.000000 eV/Deg
--------------------------------------------------------------------------------

  Primitive cell volume =           140.919728 Angs**3

  Density of cell =      1.415702 g/cm**3

  Non-primitive cell volume =           140.919728 Angs**3


  Final internal derivatives :

--------------------------------------------------------------------------------
   No.  Atomic          a             b             c           Radius
        Label          (eV)          (eV)          (eV)        (eV/Angs)
--------------------------------------------------------------------------------
--------------------------------------------------------------------------------
  Maximum abs         0.000000      0.000000      0.000000      0.000000
--------------------------------------------------------------------------------

  Final derivatives for centre of mass of rigid molecules: 

--------------------------------------------------------------------------------
   Molecule             a             b             c       
                       (eV)          (eV)          (eV)     
--------------------------------------------------------------------------------
      1               0.000000      0.000000     -0.000007
--------------------------------------------------------------------------------

  Final derivatives for quarternions of rigid molecules: 

--------------------------------------------------------------------------------
   Molecule             Q1            Q2            Q3      
                       (eV)          (eV)          (eV)     
--------------------------------------------------------------------------------
      1               0.000000      0.000000      0.000000
--------------------------------------------------------------------------------

  Born effective charge tensors : 

-------------------------------------------------------------------------------
  Atom             x           y             z
-------------------------------------------------------------------------------
    1 C     x       0.3800      0.0000      0.0000
            y       0.0000      0.3800      0.0000
            z       0.0000      0.0000      0.3800
-------------------------------------------------------------------------------
    2 O     x      -0.3800      0.0000      0.0000
            y       0.0000     -0.3800      0.0000
            z       0.0000      0.0000     -0.3800
-------------------------------------------------------------------------------
    3 N     x      -0.8300      0.0000      0.0000
            y       0.0000     -0.8300      0.0000
            z       0.0000      0.0000     -0.8300
-------------------------------------------------------------------------------
    4 H     x       0.4150      0.0000      0.0000
            y       0.0000      0.4150      0.0000
            z       0.0000      0.0000      0.4150
-------------------------------------------------------------------------------
    5 H     x       0.4150      0.0000      0.0000
            y       0.0000      0.4150      0.0000
            z       0.0000      0.0000      0.4150
-------------------------------------------------------------------------------




  Elastic Constant Matrix: (Units=GPa)

-------------------------------------------------------------------------------
  Indices      1         2         3         4         5         6    
-------------------------------------------------------------------------------
       1     23.5523   31.1459   20.5256    0.0000   -0.0000   -0.0000
       2     31.1459   23.5523   20.5256   -0.0000   -0.0000   -0.0000
       3     20.5256   20.5256   74.9477   -0.0000   -0.0000    0.0000
       4      0.0000   -0.0000   -0.0000    6.6458   -0.0000   -0.0000
       5     -0.0000   -0.0000   -0.0000   -0.0000    6.6458   -0.0000
       6     -0.0000   -0.0000    0.0000   -0.0000   -0.0000   32.0399
-------------------------------------------------------------------------------


  Elastic Compliance Matrix: (Units=1/GPa)

-------------------------------------------------------------------------------
  Indices      1         2         3         4         5         6    
-------------------------------------------------------------------------------
       1   -0.054339  0.077351 -0.006302  0.000000  0.000000  0.000000
       2    0.077351 -0.054339 -0.006302 -0.000000 -0.000000  0.000000
       3   -0.006302 -0.006302  0.016795  0.000000 -0.000000 -0.000000
       4    0.000000 -0.000000  0.000000  0.150472  0.000000  0.000000
       5    0.000000 -0.000000 -0.000000  0.000000  0.150472  0.000000
       6    0.000000  0.000000 -0.000000  0.000000  0.000000  0.031211
-------------------------------------------------------------------------------

  Mechanical properties :

-------------------------------------------------------------------------------
  Convention :                    Reuss         Voigt         Hill
-------------------------------------------------------------------------------
  Bulk  Modulus (GPa)     =      26.58890      29.60519      28.09705
  Shear Modulus (GPa)     =      40.54691      12.38997      26.46844
-------------------------------------------------------------------------------
  Velocity S-wave (km/s)  =       5.35172       2.95835       4.32393
  Velocity P-wave (km/s)  =       7.54780       5.70799       6.69143
-------------------------------------------------------------------------------
  Compressibility (1/GPa) =    0.03760967
-------------------------------------------------------------------------------
  Stress axis :                     x             y             z
-------------------------------------------------------------------------------
  Youngs Moduli (GPa)     =     -18.40296     -18.40296      59.54314
-------------------------------------------------------------------------------
  Poissons Ratio (x)      =                     1.42349       0.37525
  Poissons Ratio (y)      =       1.42349                     0.37525
  Poissons Ratio (z)      =      -0.11598      -0.11598
-------------------------------------------------------------------------------


  Piezoelectric Strain Matrix: (Units=C/m**2)

-------------------------------------------------------------------------------
  Indices      1         2         3         4         5         6    
-------------------------------------------------------------------------------
       x    -0.00000  -0.00000  -0.00000  -0.00000  -0.00000  -0.00000
       y    -0.00000  -0.00000  -0.00000  -0.00000  -0.00000  -0.00000
       z    -0.00000  -0.00000  -0.00000  -0.00000  -0.00000  -0.00000
-------------------------------------------------------------------------------


  Piezoelectric Stress Matrix: (Units=10**-11 C/N)

-------------------------------------------------------------------------------
  Indices      1         2         3         4         5         6    
-------------------------------------------------------------------------------
       x     0.00000   0.00000   0.00000   0.00000   0.00000   0.00000
       y     0.00000   0.00000   0.00000   0.00000   0.00000   0.00000
       z     0.00000   0.00000   0.00000   0.00000   0.00000   0.00000
-------------------------------------------------------------------------------


  Static dielectric constant tensor : 

-------------------------------------------------------------------------------
              x         y         z
-------------------------------------------------------------------------------
       x     1.00000   0.00000   0.00000
       y     0.00000   1.00000   0.00000
       z     0.00000   0.00000   1.00000
--------------------------------------------------------------------------------

  Static refractive indices : 

-------------------------------------------------------------------------------
    1 =    1.00000      2 =    1.00000      3 =    1.00000
-------------------------------------------------------------------------------


  Time to end of optimisation =       0.1098 seconds


  Peak dynamic memory used =       2.91 MB 


  Timing analysis for GULP :

--------------------------------------------------------------------------------
  Task / Subroutine                                          Time (Seconds)
--------------------------------------------------------------------------------
  Calculation of reciprocal space energy and derivatives          0.0303
  Calculation of real space energy and derivatives                0.0511
  Calculation of real space energy using symmetry                 0.0202
  Calculation of molecules and connectivity                       0.0005
  Symmetry generation of equivalent positions                     0.0004
--------------------------------------------------------------------------------
  Total CPU time                                                  0.1099
--------------------------------------------------------------------------------


  Dump file written as example74.res


  Job Finished at 16:03.41  8th July       2020                               

