********************************************************************************
*                       GENERAL UTILITY LATTICE PROGRAM                        *
*                                 Julian Gale                                  *
*                       Curtin Institute for Computation                       *
*                    School of Molecular and Life Sciences                     *
*                    Curtin University, Western Australia                      *
********************************************************************************
* Version = 6.0.0 * Last modified =   4th December 2020                        *
********************************************************************************
*  optimise     - perform optimisation run                                     *
*  conp         - constant pressure calculation                                *
*  property     - calculate properties for final geometry                      *
*  phonon       - calculate phonons for final geometry                         *
*  defect       - perform defect calculation after bulk run                    *
*  nosymmetry   - turn off symmetry after initial structure generation         *
*  full         - generate full unit cell when symmetry is removed             *
*  distance     - calculate distances                                          *
********************************************************************************

  Job Started  at 09:20.52 22nd December   2020                               

  Number of CPUs =     1

  Host name      = M-A0034725                              


  Total number of configurations input =      1

********************************************************************************
*  Input for Configuration =   1                                               *
********************************************************************************

  Formula = Si8                                                         

  Number of irreducible atoms/shells =       8


  Total number atoms/shells =       8

  Dimensionality = 3               :  Bulk   



  Cartesian lattice vectors (Angstroms) :

        5.400000    0.000000    0.000000
        0.000000    5.400000    0.000000
        0.000000    0.000000    5.400000

  Cell parameters (Angstroms/Degrees):

  a =       5.4000    alpha =  90.0000
  b =       5.4000    beta  =  90.0000
  c =       5.4000    gamma =  90.0000

  Initial cell volume =         157.464000 Angs**3

  Temperature of configuration =   0.00     K 

  Pressure of configuration =         0.000 GPa 

  Fractional coordinates of asymmetric unit :

--------------------------------------------------------------------------------
   No.  Atomic       x           y          z         Charge      Occupancy
        Label      (Frac)      (Frac)     (Frac)        (e)         (Frac)  
--------------------------------------------------------------------------------
      1 Si    c    0.000000    0.000000    0.000000     0.00000    1.000000    
      2 Si    c    0.000000 *  0.500000 *  0.500000 *   0.00000    1.000000    
      3 Si    c    0.500000 *  0.000000 *  0.500000 *   0.00000    1.000000    
      4 Si    c    0.500000 *  0.500000 *  0.000000 *   0.00000    1.000000    
      5 Si    c    0.250000 *  0.250000 *  0.250000 *   0.00000    1.000000    
      6 Si    c    0.250000 *  0.750000 *  0.750000 *   0.00000    1.000000    
      7 Si    c    0.750000 *  0.250000 *  0.750000 *   0.00000    1.000000    
      8 Si    c    0.750000 *  0.750000 *  0.250000 *   0.00000    1.000000    
--------------------------------------------------------------------------------



  Distance calculation :


  Cutoff for distances  =      3.000000 Angstroms

--------------------------------------------------------------------------------
  Asymmetric unit site  Full lattice sites    No.  Distance      No.  Distance
      No.   At.No.            At.No.                (Angs)             (Angs) 
--------------------------------------------------------------------------------
       1   Si    core        Si    core         4    2.3383
--------------------------------------------------------------------------------
       2   Si    core        Si    core         4    2.3383
--------------------------------------------------------------------------------
       3   Si    core        Si    core         4    2.3383
--------------------------------------------------------------------------------
       4   Si    core        Si    core         4    2.3383
--------------------------------------------------------------------------------
       5   Si    core        Si    core         4    2.3383
--------------------------------------------------------------------------------
       6   Si    core        Si    core         4    2.3383
--------------------------------------------------------------------------------
       7   Si    core        Si    core         4    2.3383
--------------------------------------------------------------------------------
       8   Si    core        Si    core         4    2.3383
--------------------------------------------------------------------------------


  Brillouin zone sampling points :

--------------------------------------------------------------------------------
  Point number          x          y          z            Weight
--------------------------------------------------------------------------------
        1           0.000000   0.000000   0.000000     1.00000000
--------------------------------------------------------------------------------


********************************************************************************
*  General input information                                                   *
********************************************************************************

  Species output for all configurations : 

--------------------------------------------------------------------------------
  Species    Type    Atomic    Atomic    Charge       Radii (Angs)     Library
                     Number     Mass       (e)     Cova   Ionic  VDW   Symbol
--------------------------------------------------------------------------------
    Si       Core       14      28.09   0.000000   1.200  0.000  2.100          
--------------------------------------------------------------------------------


  Lattice summation method               =    Ewald          (3-D)
                                         =    Parry          (2-D)
                                         =    Saunders et al (1-D)
  Accuracy factor for lattice sums       =   12.000


  Analytic derivatives to be used

  Time limit = Infinity

  Bond-order one-body potentials :

--------------------------------------------------------------------------------
Atom  Type            AlphaA               AlphaB          nA       nB          
--------------------------------------------------------------------------------
Si   c             0.0000000000         0.0000010999     0.7873   0.7873
--------------------------------------------------------------------------------

  Bond-order two-body potentials :

--------------------------------------------------------------------------------
Atom  Types                 A                 B                  Cutoffs(Ang)   
  1     2                 ZetaA             ZetaB                Taper    Max   
--------------------------------------------------------------------------------
Si   c Si   c          1830.8000000000       471.1800000000     2.7000   3.0000
                          2.479900000          1.732200000    
--------------------------------------------------------------------------------

  Bond-order repulsive :

--------------------------------------------------------------------------------
Atom    Type         Omega            Lambda          M                           
 1/2     1/2                                                                    
--------------------------------------------------------------------------------
Si   c             1.00000000       1.73220000        3
Si   c
--------------------------------------------------------------------------------

  Bond-order attractive :

--------------------------------------------------------------------------------
Atom    Type         Omega            Lambda          M                           
 1/2     1/2           C              D                H                        
--------------------------------------------------------------------------------
Si   c  Theta       1.00000000       1.73220000       3
Si   c         100390.00000000      16.21800000      -0.59826000
--------------------------------------------------------------------------------

********************************************************************************
*  Output for configuration   1                                                *
********************************************************************************


  Components of energy : 

--------------------------------------------------------------------------------
  Interatomic potentials     =           0.00000000 eV    
  Bond-order potentials      =         -37.02225038 eV    
  Monopole - monopole (real) =           0.00000000 eV    
  Monopole - monopole (recip)=           0.00000000 eV    
  Monopole - monopole (total)=           0.00000000 eV    
--------------------------------------------------------------------------------
  Total lattice energy       =         -37.02225038 eV    
--------------------------------------------------------------------------------
  Total lattice energy       =           -3572.0812 kJ/(mole unit cells)
--------------------------------------------------------------------------------


  Number of variables =       27

  Maximum number of calculations  =          1000
  Maximum Hessian update interval =            10
  Maximum step size               =   1.000000000
  Maximum parameter tolerance     =   0.000010000
  Maximum function  tolerance     =   0.000010000
  Maximum gradient  tolerance     =   0.001000000
  Maximum gradient  component     =   0.010000000

  Cell parameters to be optimised using strains

  Newton-Raphson optimiser to be used

  BFGS hessian update to be used

  Lower half triangular hessian to be used

  Dumpfile to be written after every cycle

  Start of bulk optimisation :

  Cycle:      0 Energy:       -37.022250  Gnorm:      0.113417  CPU:    0.008
  ** Hessian calculated **
  Cycle:      1 Energy:       -37.037804  Gnorm:      0.000433  CPU:    0.008


  **** Optimisation achieved ****


  Final energy =     -37.03780403 eV      
  Final Gnorm  =       0.00000002

  Components of energy : 

--------------------------------------------------------------------------------
  Interatomic potentials     =           0.00000000 eV    
  Bond-order potentials      =         -37.03780403 eV    
  Monopole - monopole (real) =           0.00000000 eV    
  Monopole - monopole (recip)=           0.00000000 eV    
  Monopole - monopole (total)=           0.00000000 eV    
--------------------------------------------------------------------------------
  Total lattice energy       =         -37.03780403 eV    
--------------------------------------------------------------------------------
  Total lattice energy       =           -3573.5819 kJ/(mole unit cells)
--------------------------------------------------------------------------------

  Final fractional coordinates of atoms :

--------------------------------------------------------------------------------
   No.  Atomic        x           y          z          Radius
        Label       (Frac)      (Frac)     (Frac)       (Angs) 
--------------------------------------------------------------------------------
     1  Si    c     0.000000    0.000000    0.000000    0.000000
     2  Si    c     0.000000    0.500000    0.500000    0.000000
     3  Si    c     0.500000    0.000000    0.500000    0.000000
     4  Si    c     0.500000    0.500000    0.000000    0.000000
     5  Si    c     0.250000    0.250000    0.250000    0.000000
     6  Si    c     0.250000    0.750000    0.750000    0.000000
     7  Si    c     0.750000    0.250000    0.750000    0.000000
     8  Si    c     0.750000    0.750000    0.250000    0.000000
--------------------------------------------------------------------------------

  Final Cartesian lattice vectors (Angstroms) :

        5.431979    0.000000    0.000000
        0.000000    5.431979    0.000000
        0.000000    0.000000    5.431979


  Final cell parameters and derivatives :

--------------------------------------------------------------------------------
       a            5.431979 Angstrom     dE/de1(xx)     0.000000 eV/strain
       b            5.431979 Angstrom     dE/de2(yy)     0.000000 eV/strain
       c            5.431979 Angstrom     dE/de3(zz)     0.000000 eV/strain
       alpha       90.000000 Degrees      dE/de4(yz)    -0.000000 eV/strain
       beta        90.000000 Degrees      dE/de5(xz)     0.000000 eV/strain
       gamma       90.000000 Degrees      dE/de6(xy)     0.000000 eV/strain
--------------------------------------------------------------------------------

  Primitive cell volume =           160.278119 Angs**3

  Density of cell =      2.328217 g/cm**3

  Non-primitive cell volume =           160.278119 Angs**3


  Final internal derivatives :

--------------------------------------------------------------------------------
   No.  Atomic          a             b             c           Radius
        Label          (eV)          (eV)          (eV)        (eV/Angs)
--------------------------------------------------------------------------------
      1 Si    c       0.000000      0.000000      0.000000      0.000000
      2 Si    c       0.000000     -0.000000     -0.000000      0.000000
      3 Si    c       0.000000     -0.000000     -0.000000      0.000000
      4 Si    c      -0.000000     -0.000000     -0.000000      0.000000
      5 Si    c      -0.000000     -0.000000      0.000000      0.000000
      6 Si    c      -0.000000      0.000000      0.000000      0.000000
      7 Si    c      -0.000000      0.000000      0.000000      0.000000
      8 Si    c      -0.000000      0.000000      0.000000      0.000000
--------------------------------------------------------------------------------
  Maximum abs         0.000000      0.000000      0.000000      0.000000
--------------------------------------------------------------------------------


  Distance calculation :


  Cutoff for distances  =      3.000000 Angstroms

--------------------------------------------------------------------------------
  Asymmetric unit site  Full lattice sites    No.  Distance      No.  Distance
      No.   At.No.            At.No.                (Angs)             (Angs) 
--------------------------------------------------------------------------------
       1   Si    core        Si    core         4    2.3521
--------------------------------------------------------------------------------
       2   Si    core        Si    core         4    2.3521
--------------------------------------------------------------------------------
       3   Si    core        Si    core         4    2.3521
--------------------------------------------------------------------------------
       4   Si    core        Si    core         4    2.3521
--------------------------------------------------------------------------------
       5   Si    core        Si    core         4    2.3521
--------------------------------------------------------------------------------
       6   Si    core        Si    core         4    2.3521
--------------------------------------------------------------------------------
       7   Si    core        Si    core         4    2.3521
--------------------------------------------------------------------------------
       8   Si    core        Si    core         4    2.3521
--------------------------------------------------------------------------------




  Elastic Constant Matrix: (Units=GPa)

-------------------------------------------------------------------------------
  Indices      1         2         3         4         5         6    
-------------------------------------------------------------------------------
       1    142.5315   75.3849   75.3849    0.0000   -0.0000    0.0000
       2     75.3849  142.5315   75.3849    0.0000    0.0000   -0.0000
       3     75.3849   75.3849  142.5315    0.0000   -0.0000   -0.0000
       4      0.0000    0.0000    0.0000   69.0146   -0.0000   -0.0000
       5     -0.0000    0.0000   -0.0000   -0.0000   69.0146    0.0000
       6      0.0000   -0.0000   -0.0000    0.0000    0.0000   69.0146
-------------------------------------------------------------------------------


  Elastic Compliance Matrix: (Units=1/GPa)

-------------------------------------------------------------------------------
  Indices      1         2         3         4         5         6    
-------------------------------------------------------------------------------
       1    0.011065 -0.003828 -0.003828 -0.000000  0.000000 -0.000000
       2   -0.003828  0.011065 -0.003828  0.000000 -0.000000 -0.000000
       3   -0.003828 -0.003828  0.011065  0.000000  0.000000  0.000000
       4   -0.000000  0.000000  0.000000  0.014490  0.000000  0.000000
       5    0.000000 -0.000000  0.000000  0.000000  0.014490 -0.000000
       6   -0.000000 -0.000000  0.000000 -0.000000 -0.000000  0.014490
-------------------------------------------------------------------------------

  Mechanical properties :

-------------------------------------------------------------------------------
  Convention :                    Reuss         Voigt         Hill
-------------------------------------------------------------------------------
  Bulk  Modulus (GPa)     =      97.76707      97.76707      97.76707
  Shear Modulus (GPa)     =      48.52473      54.83805      51.68139
-------------------------------------------------------------------------------
  Velocity S-wave (km/s)  =       4.56531       4.85321       4.71146
  Velocity P-wave (km/s)  =       8.35354       8.56721       8.46105
-------------------------------------------------------------------------------
  Compressibility (1/GPa) =    0.01022839
-------------------------------------------------------------------------------
  Stress axis :                     x             y             z
-------------------------------------------------------------------------------
  Youngs Moduli (GPa)     =      90.37494      90.37494      90.37494
-------------------------------------------------------------------------------
  Poissons Ratio (x)      =                     0.34593       0.34593
  Poissons Ratio (y)      =       0.34593                     0.34593
  Poissons Ratio (z)      =       0.34593       0.34593
-------------------------------------------------------------------------------


  Piezoelectric Strain Matrix: (Units=C/m**2)

-------------------------------------------------------------------------------
  Indices      1         2         3         4         5         6    
-------------------------------------------------------------------------------
       x    -0.00000  -0.00000  -0.00000  -0.00000  -0.00000  -0.00000
       y    -0.00000  -0.00000  -0.00000  -0.00000  -0.00000  -0.00000
       z    -0.00000  -0.00000  -0.00000  -0.00000  -0.00000  -0.00000
-------------------------------------------------------------------------------


  Piezoelectric Stress Matrix: (Units=10**-11 C/N)

-------------------------------------------------------------------------------
  Indices      1         2         3         4         5         6    
-------------------------------------------------------------------------------
       x     0.00000   0.00000   0.00000   0.00000   0.00000   0.00000
       y     0.00000   0.00000   0.00000   0.00000   0.00000   0.00000
       z     0.00000   0.00000   0.00000   0.00000   0.00000   0.00000
-------------------------------------------------------------------------------


  Static dielectric constant tensor : 

-------------------------------------------------------------------------------
              x         y         z
-------------------------------------------------------------------------------
       x     1.00000   0.00000   0.00000
       y     0.00000   1.00000   0.00000
       z     0.00000   0.00000   1.00000
--------------------------------------------------------------------------------

  Static refractive indices : 

-------------------------------------------------------------------------------
    1 =    1.00000      2 =    1.00000      3 =    1.00000
-------------------------------------------------------------------------------


  Phonon Calculation : 

  Number of k points for this configuration =        1

--------------------------------------------------------------------------------
  K point      1 =   0.000000  0.000000  0.000000  Weight =    1.000
--------------------------------------------------------------------------------

  Frequencies (cm-1) [NB: Negative implies an imaginary mode]:

   -0.00   -0.00    0.00  230.00  230.00  230.00  230.00  230.00  230.00
  406.66  406.66  406.66  406.66  406.66  406.66  496.70  496.70  496.70
  496.70  496.70  496.70  535.96  535.96  535.96


--------------------------------------------------------------------------------
  Phonon properties (per mole of unit cells): Temperature =      0.000 K
--------------------------------------------------------------------------------
  Zero point energy            =        0.521235 eV
--------------------------------------------------------------------------------

  Time to end of optimisation =       0.0107 seconds

********************************************************************************
*  Defect calculation for configuration   1 :                                  *
********************************************************************************



!!!!!!!!!!!!!!!!!!!!!!!!!!!!!!!!!!!!!!!!!!!!!!!!!!!!!!!!!!!!!!!!!!!!!!!!!!!!!!!!
!! WARNING : Ambiguous vacancy specifier used
!!!!!!!!!!!!!!!!!!!!!!!!!!!!!!!!!!!!!!!!!!!!!!!!!!!!!!!!!!!!!!!!!!!!!!!!!!!!!!!!

  Total number of defects =      1

  Total charge on defect  =   0.00

  Defect centre is at   0.0000   0.0000   0.0000  Frac

  Region 1 radius =   4.0000      Number of ions =     16

  Number of symmetry inequivalent region 1 ions  =      2

  Region 2 radius =  10.0000      Number of ions =    174

  Number of symmetry inequivalent region 2a ions =     15

  Region 2a mode = 4 : screened electrostatics due to region 1 
                       neglect correction to region 1 forces from 2a
                       region 2a displacements based on defects only

  Region 2a ions will only interact with defects in region 1

  Vacancies:

--------------------------------------------------------------------------------
    Specification type     Symbol/Number         x          y          z
--------------------------------------------------------------------------------
    Atom                    Si   
--------------------------------------------------------------------------------


  Symmetry reduced region 1 (Relative to defect centre) :

--------------------------------------------------------------------------------
   No.   Atomic       x            y             z       Radius  Multiplicity   
         Label      (Angs)       (Angs)        (Angs)    (Angs)     
--------------------------------------------------------------------------------
     1  Si    c      1.3580 *     1.3580       1.3580    0.0000     4          
     2  Si    c     -0.0000 *    -2.7160 *     2.7160    0.0000    12          
--------------------------------------------------------------------------------


  Constraints on symmetry reduced coordinates :

--------------------------------------------------------------------------------
  Constraint no.      Unconstrained     Constrained    Coefficient    
                         Variable         Variable
--------------------------------------------------------------------------------
           1                 1 x             1 y         1.00000
           2                 1 x             1 z         1.00000
           3                 2 y             2 z        -1.00000
--------------------------------------------------------------------------------


  Components of defect energy : 

--------------------------------------------------------------------------------
  Region 1 - region 1                   =      0.00000000 eV
  Region 1 - region 2a (unrelaxed)      =      0.00000000 eV
  Region 1 - 2a (relaxed - correction)  =      0.00000000 eV
  Region 1 (Total)                      =      8.73328524 eV
  Region 2a                             =      0.00000000 eV
  Region 2b                             =      0.00000000 eV
--------------------------------------------------------------------------------
  Total defect energy                   =      8.73328524 eV
--------------------------------------------------------------------------------


  Number of variables =        3

  Maximum number of calculations  =        1000
  Maximum Hessian update interval =          10
  Maximum step size               =   1.0000000
  Maximum parameter tolerance     =   0.0000100
  Maximum function  tolerance     =   0.0000100
  Maximum gradient  tolerance     =   0.0010000

  Symmetry adapted optimisation

  Symmetry to be used for second derivatives

  Newton-Raphson optimiser to be used

  BFGS hessian update to be used

  Lower half triangular hessian to be used

  Dumpfile to be written after every cycle

  Start of defect optimisation :

  Cycle:      0 Defect Energy:   8.733285  Gnorm:     2.496828  CPU:    0.015
  ** Hessian calculated **
  Cycle:      1 Defect Energy:   8.332045  Gnorm:     0.058767  CPU:    0.018
  Cycle:      2 Defect Energy:   8.332807  Gnorm:     0.039540  CPU:    0.019
  Cycle:      3 Defect Energy:   8.333324  Gnorm:     0.027657  CPU:    0.020
  Cycle:      4 Defect Energy:   8.333692  Gnorm:     0.019363  CPU:    0.021
  Cycle:      5 Defect Energy:   8.333955  Gnorm:     0.013557  CPU:    0.022
  Cycle:      6 Defect Energy:   8.334141  Gnorm:     0.009491  CPU:    0.023
  Cycle:      7 Defect Energy:   8.334272  Gnorm:     0.006644  CPU:    0.024
  Cycle:      8 Defect Energy:   8.334365  Gnorm:     0.004651  CPU:    0.025
  Cycle:      9 Defect Energy:   8.334430  Gnorm:     0.003256  CPU:    0.026
  Cycle:     10 Defect Energy:   8.334476  Gnorm:     0.002279  CPU:    0.026
  ** Hessian calculated **
  Cycle:     11 Defect Energy:   8.334507  Gnorm:     0.001599  CPU:    0.028
  Cycle:     12 Defect Energy:   8.334530  Gnorm:     0.001119  CPU:    0.029
  Cycle:     13 Defect Energy:   8.334546  Gnorm:     0.000784  CPU:    0.030
  Cycle:     14 Defect Energy:   8.334557  Gnorm:     0.000548  CPU:    0.031


  **** Optimisation achieved ****


  Final defect energy  =        8.33456287
  Final defect Gnorm   =        0.00042176

  Components of defect energy : 

--------------------------------------------------------------------------------
  Region 1 - region 1                   =      0.00000000 eV
  Region 1 - region 2a (unrelaxed)      =      0.00000000 eV
  Region 1 - 2a (relaxed - correction)  =      0.00000000 eV
  Region 1 (Total)                      =      8.33456287 eV
  Region 2a                             =      0.00000000 eV
  Region 2b                             =      0.00000000 eV
--------------------------------------------------------------------------------
  Total defect energy                   =      8.33456287 eV
--------------------------------------------------------------------------------

  Final coordinates of region 1 :

--------------------------------------------------------------------------------
   No.  Atomic        x           y           z          Radius      Charge
        Label       (Angs)      (Angs)      (Angs)       (Angs)       (e) 
--------------------------------------------------------------------------------
     1  Si    c     1.485044    1.485044    1.485044    0.000000    0.000000
     2  Si    c     1.485044   -1.485044    1.485044    0.000000    0.000000
     3  Si    c    -1.485044    1.485044   -1.485044    0.000000    0.000000
     4  Si    c    -1.485044   -1.485044    1.485044    0.000000    0.000000
     5  Si    c     0.022117   -2.730013    2.730013    0.000000    0.000000
     6  Si    c     0.022117    2.730013   -2.730013    0.000000    0.000000
     7  Si    c    -2.730013    2.730013    0.022117    0.000000    0.000000
     8  Si    c     2.730013   -2.730013    0.022117    0.000000    0.000000
     9  Si    c    -0.022117    2.730013    2.730013    0.000000    0.000000
    10  Si    c    -2.730013   -0.022117   -2.730013    0.000000    0.000000
    11  Si    c    -2.730013    0.022117    2.730013    0.000000    0.000000
    12  Si    c     2.730013    0.022117   -2.730013    0.000000    0.000000
    13  Si    c     2.730013   -0.022117    2.730013    0.000000    0.000000
    14  Si    c     2.730013    2.730013   -0.022117    0.000000    0.000000
    15  Si    c    -0.022117   -2.730013   -2.730013    0.000000    0.000000
    16  Si    c    -2.730013   -2.730013   -0.022117    0.000000    0.000000
--------------------------------------------------------------------------------

  Final coordinates of symmetry reduced region 1 (relative to defect centre):

--------------------------------------------------------------------------------
   No.  Atomic        x           y           z          Charge
        Label       (Angs)      (Angs)      (Angs)         (e) 
--------------------------------------------------------------------------------
     1  Si    c     1.485044    1.485044    1.485044    0.000000
     2  Si    c     0.022117   -2.730013    2.730013    0.000000
--------------------------------------------------------------------------------


  Final derivatives for region 1 :

--------------------------------------------------------------------------------
   No.  Atomic          x             y             z            Radius
        Label       (eV/Angs)     (eV/Angs)     (eV/Angs)       (eV/Angs)
--------------------------------------------------------------------------------
     1  Si    c       0.000603      0.000000      0.000000      0.000000
     2  Si    c       0.000459     -0.001013      0.000000      0.000000
--------------------------------------------------------------------------------


  Time to end of optimisation  =        0.0321 seconds


  Peak dynamic memory used =       1.97 MB 


  Timing analysis for GULP :

--------------------------------------------------------------------------------
  Task / Subroutine                                          Time (Seconds)
--------------------------------------------------------------------------------
  Calculation of Bond Order energy and derivatives                0.0136
  Calculation of phonons                                          0.0004
  Calculation for region 1 energy and derivatives (2-b)           0.0015
  Calculation for region 2a energy                                0.0021
  Symmetry generation of equivalent positions                     0.0012
--------------------------------------------------------------------------------
  Total CPU time                                                  0.0321
--------------------------------------------------------------------------------


  Dump file written as example28.grs



  **** GULP has completed with 1 warning - beware! ****

  Job Finished at 09:20.52 22nd December   2020                               

