********************************************************************************
*                       GENERAL UTILITY LATTICE PROGRAM                        *
*                                 Julian Gale                                  *
*                       Curtin Institute for Computation                       *
*                    School of Molecular and Life Sciences                     *
*                    Curtin University, Western Australia                      *
********************************************************************************
* Version = 6.0.0 * Last modified =   4th December 2020                        *
********************************************************************************
*  gradient     - perform gradient run                                         *
*  conv         - constant volume calculation                                  *
*  qok          - running with non charge neutral cell is OK                   *
********************************************************************************

  Job Started  at 09:23.00 22nd December   2020                               

  Number of CPUs =     1

  Host name      = M-A0034725                              


  Total number of configurations input =      1

********************************************************************************
*  Input for Configuration =   1                                               *
********************************************************************************

  Formula = CaO256                                                      

  Number of irreducible atoms/shells =     257


  Total number atoms/shells =     257

  Dimensionality = 3               :  Bulk   


  Charge on solid   =   2.000000 =>neutralising background added


  Cartesian lattice vectors (Angstroms) :

       19.486514    0.000000    0.000000
        0.000000   19.486514    0.000000
        0.000000    0.000000   19.486514

  Cell parameters (Angstroms/Degrees):

  a =      19.4865    alpha =  90.0000
  b =      19.4865    beta  =  90.0000
  c =      19.4865    gamma =  90.0000

  Initial cell volume =        7399.501972 Angs**3

  Temperature of configuration =   0.00     K 

  Pressure of configuration =         0.000 GPa 

  Fractional coordinates of asymmetric unit :

--------------------------------------------------------------------------------
   No.  Atomic       x           y          z         Charge      Occupancy
        Label      (Frac)      (Frac)     (Frac)        (e)         (Frac)  
--------------------------------------------------------------------------------
      1 Ca    c    0.000000 *  0.000000 *  0.000000 *   2.00000    1.000000    
      2 O2    c    0.374377 *  0.799664 *  0.913132 *   0.00000    1.000000    
      3 O2    c    0.254276 *  0.202531 *  0.954570 *   0.00000    1.000000    
      4 O2    c    0.335890 *  0.837394 *  0.263205 *   0.00000    1.000000    
      5 O2    c    0.942791 *  0.087571 *  0.648558 *   0.00000    1.000000    
      6 O2    c    0.909178 *  0.493469 *  0.997028 *   0.00000    1.000000    
      7 O2    c    0.916678 *  0.264298 *  0.751670 *   0.00000    1.000000    
      8 O2    c    0.639004 *  0.259050 *  0.004544 *   0.00000    1.000000    
      9 O2    c    0.007317 *  0.694117 *  0.396480 *   0.00000    1.000000    
     10 O2    c    0.038484 *  0.119454 *  0.954418 *   0.00000    1.000000    
     11 O2    c    0.171958 *  0.966584 *  0.894089 *   0.00000    1.000000    
     12 O2    c    0.646343 *  0.084415 *  0.826933 *   0.00000    1.000000    
     13 O2    c    0.794955 *  0.002617 *  0.955757 *   0.00000    1.000000    
     14 O2    c    0.299761 *  0.349963 *  0.519671 *   0.00000    1.000000    
     15 O2    c    0.661131 *  0.465754 *  0.645568 *   0.00000    1.000000    
     16 O2    c    0.740226 *  0.854505 *  0.522948 *   0.00000    1.000000    
     17 O2    c    0.108112 *  0.627123 *  0.553448 *   0.00000    1.000000    
     18 O2    c    0.049340 *  0.260387 *  0.951174 *   0.00000    1.000000    
     19 O2    c    0.496235 *  0.954563 *  0.321939 *   0.00000    1.000000    
     20 O2    c    0.702729 *  0.556525 *  0.471500 *   0.00000    1.000000    
     21 O2    c    0.071175 *  0.357679 *  0.603448 *   0.00000    1.000000    
     22 O2    c    0.826135 *  0.278087 *  0.444877 *   0.00000    1.000000    
     23 O2    c    0.167924 *  0.260004 *  0.369735 *   0.00000    1.000000    
     24 O2    c    0.983883 *  0.067168 *  0.832594 *   0.00000    1.000000    
     25 O2    c    0.536670 *  0.404686 *  0.263519 *   0.00000    1.000000    
     26 O2    c    0.836702 *  0.573576 *  0.789019 *   0.00000    1.000000    
     27 O2    c    0.010767 *  0.521467 *  0.091449 *   0.00000    1.000000    
     28 O2    c    0.646067 *  0.953545 *  0.556841 *   0.00000    1.000000    
     29 O2    c    0.507618 *  0.959927 *  0.087937 *   0.00000    1.000000    
     30 O2    c    0.662285 *  0.219642 *  0.868082 *   0.00000    1.000000    
     31 O2    c    0.146760 *  0.318239 *  0.096175 *   0.00000    1.000000    
     32 O2    c    0.316560 *  0.140272 *  0.144525 *   0.00000    1.000000    
     33 O2    c    0.653630 *  0.198986 *  0.527651 *   0.00000    1.000000    
     34 O2    c    0.726673 *  0.426895 *  0.947786 *   0.00000    1.000000    
     35 O2    c    0.827879 *  0.764101 *  0.590859 *   0.00000    1.000000    
     36 O2    c    0.482062 *  0.228086 *  0.877130 *   0.00000    1.000000    
     37 O2    c    0.860265 *  0.543824 *  0.652828 *   0.00000    1.000000    
     38 O2    c    0.989643 *  0.158724 *  0.184203 *   0.00000    1.000000    
     39 O2    c    0.449451 *  0.528505 *  0.990692 *   0.00000    1.000000    
     40 O2    c    0.668291 *  0.119769 *  0.692205 *   0.00000    1.000000    
     41 O2    c    0.046209 *  0.708681 *  0.185119 *   0.00000    1.000000    
     42 O2    c    0.758117 *  0.485233 *  0.232933 *   0.00000    1.000000    
     43 O2    c    0.977383 *  0.921192 *  0.830947 *   0.00000    1.000000    
     44 O2    c    0.056897 *  0.906019 *  0.377688 *   0.00000    1.000000    
     45 O2    c    0.866912 *  0.227157 *  0.162493 *   0.00000    1.000000    
     46 O2    c    0.350069 *  0.111368 *  0.008241 *   0.00000    1.000000    
     47 O2    c    0.475025 *  0.883937 *  0.841210 *   0.00000    1.000000    
     48 O2    c    0.938465 *  0.691949 *  0.930533 *   0.00000    1.000000    
     49 O2    c    0.582847 *  0.000143 *  0.210333 *   0.00000    1.000000    
     50 O2    c    0.780925 *  0.805889 *  0.834279 *   0.00000    1.000000    
     51 O2    c    0.440075 *  0.591140 *  0.214576 *   0.00000    1.000000    
     52 O2    c    0.892697 *  0.363572 *  0.196407 *   0.00000    1.000000    
     53 O2    c    0.017844 *  0.384008 *  0.124158 *   0.00000    1.000000    
     54 O2    c    0.376702 *  0.015365 *  0.372220 *   0.00000    1.000000    
     55 O2    c    0.971041 *  0.584515 *  0.840555 *   0.00000    1.000000    
     56 O2    c    0.276719 *  0.270252 *  0.270017 *   0.00000    1.000000    
     57 O2    c    0.291940 *  0.684046 *  0.666595 *   0.00000    1.000000    
     58 O2    c    0.435344 *  0.344070 *  0.471947 *   0.00000    1.000000    
     59 O2    c    0.643943 *  0.925281 *  0.326661 *   0.00000    1.000000    
     60 O2    c    0.264174 *  0.927354 *  0.170812 *   0.00000    1.000000    
     61 O2    c    0.095118 *  0.451079 *  0.852652 *   0.00000    1.000000    
     62 O2    c    0.308921 *  0.543206 *  0.621040 *   0.00000    1.000000    
     63 O2    c    0.275004 *  0.321021 *  0.877050 *   0.00000    1.000000    
     64 O2    c    0.514451 *  0.377618 *  0.584190 *   0.00000    1.000000    
     65 O2    c    0.491174 *  0.256620 *  0.656424 *   0.00000    1.000000    
     66 O2    c    0.814139 *  0.593568 *  0.161497 *   0.00000    1.000000    
     67 O2    c    0.090934 *  0.148002 *  0.784191 *   0.00000    1.000000    
     68 O2    c    0.915677 *  0.064713 *  0.000661 *   0.00000    1.000000    
     69 O2    c    0.093044 *  0.060141 *  0.293901 *   0.00000    1.000000    
     70 O2    c    0.210055 *  0.958289 *  0.522762 *   0.00000    1.000000    
     71 O2    c    0.652050 *  0.673413 *  0.308755 *   0.00000    1.000000    
     72 O2    c    0.845896 *  0.787794 *  0.213715 *   0.00000    1.000000    
     73 O2    c    0.360521 *  0.229953 *  0.810142 *   0.00000    1.000000    
     74 O2    c    0.566154 *  0.581151 *  0.931112 *   0.00000    1.000000    
     75 O2    c    0.546191 *  0.457150 *  0.071233 *   0.00000    1.000000    
     76 O2    c    0.076293 *  0.819743 *  0.267845 *   0.00000    1.000000    
     77 O2    c    0.879641 *  0.909500 *  0.149257 *   0.00000    1.000000    
     78 O2    c    0.797085 *  0.269000 *  0.850516 *   0.00000    1.000000    
     79 O2    c    0.022451 *  0.567042 *  0.456125 *   0.00000    1.000000    
     80 O2    c    0.029182 *  0.718994 *  0.039402 *   0.00000    1.000000    
     81 O2    c    0.200994 *  0.383396 *  0.768202 *   0.00000    1.000000    
     82 O2    c    0.213660 *  0.539234 *  0.514275 *   0.00000    1.000000    
     83 O2    c    0.547339 *  0.999821 *  0.885899 *   0.00000    1.000000    
     84 O2    c    0.796949 *  0.949267 *  0.711281 *   0.00000    1.000000    
     85 O2    c    0.055022 *  0.853308 *  0.999945 *   0.00000    1.000000    
     86 O2    c    0.097486 *  0.846671 *  0.857472 *   0.00000    1.000000    
     87 O2    c    0.219633 *  0.841142 *  0.596239 *   0.00000    1.000000    
     88 O2    c    0.570822 *  0.646581 *  0.194461 *   0.00000    1.000000    
     89 O2    c    0.920726 *  0.772465 *  0.480154 *   0.00000    1.000000    
     90 O2    c    0.265377 *  0.568003 *  0.054797 *   0.00000    1.000000    
     91 O2    c    0.377668 *  0.175308 *  0.603637 *   0.00000    1.000000    
     92 O2    c    0.649800 *  0.869785 *  0.178908 *   0.00000    1.000000    
     93 O2    c    0.408464 *  0.327053 *  0.097720 *   0.00000    1.000000    
     94 O2    c    0.842231 *  0.390106 *  0.772954 *   0.00000    1.000000    
     95 O2    c    0.473528 *  0.443810 *  0.380836 *   0.00000    1.000000    
     96 O2    c    0.707083 *  0.839775 *  0.715985 *   0.00000    1.000000    
     97 O2    c    0.575208 *  0.707529 *  0.569068 *   0.00000    1.000000    
     98 O2    c    0.585840 *  0.898609 *  0.984002 *   0.00000    1.000000    
     99 O2    c    0.831730 *  0.927550 *  0.446410 *   0.00000    1.000000    
    100 O2    c    0.572646 *  0.285780 *  0.776369 *   0.00000    1.000000    
    101 O2    c    0.558738 *  0.541945 *  0.440038 *   0.00000    1.000000    
    102 O2    c    0.757713 *  0.149948 *  0.429419 *   0.00000    1.000000    
    103 O2    c    0.853035 *  0.400173 *  0.626288 *   0.00000    1.000000    
    104 O2    c    0.409853 *  0.904338 *  0.517820 *   0.00000    1.000000    
    105 O2    c    0.119351 *  0.180057 *  0.128720 *   0.00000    1.000000    
    106 O2    c    0.427124 *  0.100514 *  0.220805 *   0.00000    1.000000    
    107 O2    c    0.756921 *  0.199806 *  0.068916 *   0.00000    1.000000    
    108 O2    c    0.595518 *  0.150141 *  0.404553 *   0.00000    1.000000    
    109 O2    c    0.773948 *  0.523212 *  0.041647 *   0.00000    1.000000    
    110 O2    c    0.286129 *  0.406635 *  0.651665 *   0.00000    1.000000    
    111 O2    c    0.158566 *  0.363543 *  0.958015 *   0.00000    1.000000    
    112 O2    c    0.644575 *  0.674452 *  0.763924 *   0.00000    1.000000    
    113 O2    c    0.398516 *  0.899312 *  0.721615 *   0.00000    1.000000    
    114 O2    c    0.317592 *  0.975656 *  0.894552 *   0.00000    1.000000    
    115 O2    c    0.941799 *  0.013632 *  0.472537 *   0.00000    1.000000    
    116 O2    c    0.460874 *  0.331563 *  0.968640 *   0.00000    1.000000    
    117 O2    c    0.107837 *  0.281517 *  0.720086 *   0.00000    1.000000    
    118 O2    c    0.194923 *  0.106090 *  0.865763 *   0.00000    1.000000    
    119 O2    c    0.651576 *  0.189232 *  0.278981 *   0.00000    1.000000    
    120 O2    c    0.947461 *  0.287691 *  0.613180 *   0.00000    1.000000    
    121 O2    c    0.078885 *  0.551541 *  0.746346 *   0.00000    1.000000    
    122 O2    c    0.143510 *  0.745708 *  0.370975 *   0.00000    1.000000    
    123 O2    c    0.942518 *  0.444646 *  0.866345 *   0.00000    1.000000    
    124 O2    c    0.191611 *  0.066341 *  0.617159 *   0.00000    1.000000    
    125 O2    c    0.486444 *  0.605756 *  0.612732 *   0.00000    1.000000    
    126 O2    c    0.637436 *  0.568330 *  0.082469 *   0.00000    1.000000    
    127 O2    c    0.357194 *  0.813916 *  0.616733 *   0.00000    1.000000    
    128 O2    c    0.408445 *  0.749201 *  0.403974 *   0.00000    1.000000    
    129 O2    c    0.951747 *  0.031338 *  0.132132 *   0.00000    1.000000    
    130 O2    c    0.075882 *  0.150565 *  0.640469 *   0.00000    1.000000    
    131 O2    c    0.144575 *  0.072720 *  0.037582 *   0.00000    1.000000    
    132 O2    c    0.125415 *  0.939848 *  0.211873 *   0.00000    1.000000    
    133 O2    c    0.321225 *  0.705042 *  0.520650 *   0.00000    1.000000    
    134 O2    c    0.938035 *  0.387666 *  0.326134 *   0.00000    1.000000    
    135 O2    c    0.259475 *  0.512691 *  0.805563 *   0.00000    1.000000    
    136 O2    c    0.534044 *  0.416249 *  0.821162 *   0.00000    1.000000    
    137 O2    c    0.733988 *  0.476753 *  0.818060 *   0.00000    1.000000    
    138 O2    c    0.433332 *  0.616536 *  0.476350 *   0.00000    1.000000    
    139 O2    c    0.229173 *  0.159090 *  0.453321 *   0.00000    1.000000    
    140 O2    c    0.010359 *  0.193029 *  0.517566 *   0.00000    1.000000    
    141 O2    c    0.330576 *  0.061516 *  0.672711 *   0.00000    1.000000    
    142 O2    c    0.683461 *  0.323491 *  0.450377 *   0.00000    1.000000    
    143 O2    c    0.271129 *  0.995396 *  0.040854 *   0.00000    1.000000    
    144 O2    c    0.717448 *  0.798344 *  0.290557 *   0.00000    1.000000    
    145 O2    c    0.938017 *  0.953664 *  0.698273 *   0.00000    1.000000    
    146 O2    c    0.950994 *  0.597734 *  0.198961 *   0.00000    1.000000    
    147 O2    c    0.195670 *  0.632059 *  0.760470 *   0.00000    1.000000    
    148 O2    c    0.413587 *  0.229988 *  0.280624 *   0.00000    1.000000    
    149 O2    c    0.400513 *  0.609372 *  0.728333 *   0.00000    1.000000    
    150 O2    c    0.745649 *  0.034526 *  0.613529 *   0.00000    1.000000    
    151 O2    c    0.770031 *  0.394694 *  0.121266 *   0.00000    1.000000    
    152 O2    c    0.094614 *  0.587997 *  0.920245 *   0.00000    1.000000    
    153 O2    c    0.849526 *  0.814982 *  0.361816 *   0.00000    1.000000    
    154 O2    c    0.511416 *  0.282337 *  0.186410 *   0.00000    1.000000    
    155 O2    c    0.772636 *  0.614783 *  0.360152 *   0.00000    1.000000    
    156 O2    c    0.114530 *  0.438640 *  0.279525 *   0.00000    1.000000    
    157 O2    c    0.577482 *  0.905289 *  0.674679 *   0.00000    1.000000    
    158 O2    c    0.965991 *  0.530013 *  0.330953 *   0.00000    1.000000    
    159 O2    c    0.626504 *  0.433295 *  0.512360 *   0.00000    1.000000    
    160 O2    c    0.032295 *  0.854655 *  0.506890 *   0.00000    1.000000    
    161 O2    c    0.475179 *  0.815529 *  0.289535 *   0.00000    1.000000    
    162 O2    c    0.742475 *  0.013695 *  0.382890 *   0.00000    1.000000    
    163 O2    c    0.205952 *  0.144236 *  0.236804 *   0.00000    1.000000    
    164 O2    c    0.850246 *  0.414893 *  0.482003 *   0.00000    1.000000    
    165 O2    c    0.195988 *  0.944038 *  0.382932 *   0.00000    1.000000    
    166 O2    c    0.988377 *  0.435271 *  0.499189 *   0.00000    1.000000    
    167 O2    c    0.268485 *  0.372746 *  0.377405 *   0.00000    1.000000    
    168 O2    c    0.526806 *  0.780540 *  0.161037 *   0.00000    1.000000    
    169 O2    c    0.590181 *  0.388550 *  0.952098 *   0.00000    1.000000    
    170 O2    c    0.198443 *  0.874740 *  0.004741 *   0.00000    1.000000    
    171 O2    c    0.961599 *  0.006834 *  0.330610 *   0.00000    1.000000    
    172 O2    c    0.291300 *  0.863771 *  0.807872 *   0.00000    1.000000    
    173 O2    c    0.716057 *  0.062703 *  0.057333 *   0.00000    1.000000    
    174 O2    c    0.919664 *  0.788872 *  0.823461 *   0.00000    1.000000    
    175 O2    c    0.188524 *  0.691151 *  0.164253 *   0.00000    1.000000    
    176 O2    c    0.780922 *  0.721560 *  0.105338 *   0.00000    1.000000    
    177 O2    c    0.410090 *  0.957347 *  0.198417 *   0.00000    1.000000    
    178 O2    c    0.575031 *  0.084416 *  0.052015 *   0.00000    1.000000    
    179 O2    c    0.622128 *  0.511857 *  0.224781 *   0.00000    1.000000    
    180 O2    c    0.123497 *  0.608628 *  0.057857 *   0.00000    1.000000    
    181 O2    c    0.393406 *  0.555761 *  0.349902 *   0.00000    1.000000    
    182 O2    c    0.165518 *  0.405416 *  0.506301 *   0.00000    1.000000    
    183 O2    c    0.031478 *  0.494171 *  0.628715 *   0.00000    1.000000    
    184 O2    c    0.628025 *  0.692519 *  0.001413 *   0.00000    1.000000    
    185 O2    c    0.098356 *  0.101723 *  0.439920 *   0.00000    1.000000    
    186 O2    c    0.912151 *  0.855861 *  0.024329 *   0.00000    1.000000    
    187 O2    c    0.472716 *  0.012381 *  0.669541 *   0.00000    1.000000    
    188 O2    c    0.465519 *  0.218521 *  0.410445 *   0.00000    1.000000    
    189 O2    c    0.963351 *  0.265681 *  0.403733 *   0.00000    1.000000    
    190 O2    c    0.235625 *  0.594401 *  0.260550 *   0.00000    1.000000    
    191 O2    c    0.523677 *  0.485661 *  0.683760 *   0.00000    1.000000    
    192 O2    c    0.813271 *  0.321123 *  0.995154 *   0.00000    1.000000    
    193 O2    c    0.827261 *  0.481921 *  0.357044 *   0.00000    1.000000    
    194 O2    c    0.267177 *  0.022591 *  0.284178 *   0.00000    1.000000    
    195 O2    c    0.471496 *  0.034790 *  0.525403 *   0.00000    1.000000    
    196 O2    c    0.374335 *  0.428363 *  0.915541 *   0.00000    1.000000    
    197 O2    c    0.181252 *  0.737524 *  0.507412 *   0.00000    1.000000    
    198 O2    c    0.695686 *  0.358407 *  0.733250 *   0.00000    1.000000    
    199 O2    c    0.687125 *  0.816195 *  0.049135 *   0.00000    1.000000    
    200 O2    c    0.583652 *  0.010198 *  0.437155 *   0.00000    1.000000    
    201 O2    c    0.409114 *  0.769944 *  0.063016 *   0.00000    1.000000    
    202 O2    c    0.973312 *  0.627761 *  0.619905 *   0.00000    1.000000    
    203 O2    c    0.552243 *  0.776245 *  0.912506 *   0.00000    1.000000    
    204 O2    c    0.735223 *  0.580830 *  0.605977 *   0.00000    1.000000    
    205 O2    c    0.166634 *  0.854668 *  0.729157 *   0.00000    1.000000    
    206 O2    c    0.252139 *  0.229779 *  0.572729 *   0.00000    1.000000    
    207 O2    c    0.558920 *  0.143107 *  0.181355 *   0.00000    1.000000    
    208 O2    c    0.644735 *  0.324546 *  0.313864 *   0.00000    1.000000    
    209 O2    c    0.282379 *  0.263475 *  0.082718 *   0.00000    1.000000    
    210 O2    c    0.293970 *  0.493774 *  0.173605 *   0.00000    1.000000    
    211 O2    c    0.154672 *  0.711599 *  0.871275 *   0.00000    1.000000    
    212 O2    c    0.070569 *  0.998500 *  0.541305 *   0.00000    1.000000    
    213 O2    c    0.828962 *  0.032830 *  0.271995 *   0.00000    1.000000    
    214 O2    c    0.552599 *  0.133442 *  0.613121 *   0.00000    1.000000    
    215 O2    c    0.551105 *  0.784009 *  0.760516 *   0.00000    1.000000    
    216 O2    c    0.021221 *  0.322830 *  0.828707 *   0.00000    1.000000    
    217 O2    c    0.327368 *  0.881764 *  0.402590 *   0.00000    1.000000    
    218 O2    c    0.323295 *  0.092809 *  0.807912 *   0.00000    1.000000    
    219 O2    c    0.946851 *  0.289405 *  0.043460 *   0.00000    1.000000    
    220 O2    c    0.215447 *  0.381381 *  0.202554 *   0.00000    1.000000    
    221 O2    c    0.754555 *  0.670528 *  0.853218 *   0.00000    1.000000    
    222 O2    c    0.630206 *  0.345307 *  0.121476 *   0.00000    1.000000    
    223 O2    c    0.067477 *  0.966484 *  0.088684 *   0.00000    1.000000    
    224 O2    c    0.401052 *  0.469696 *  0.778570 *   0.00000    1.000000    
    225 O2    c    0.245209 *  0.483255 *  0.946484 *   0.00000    1.000000    
    226 O2    c    0.891970 *  0.681308 *  0.308593 *   0.00000    1.000000    
    227 O2    c    0.870642 *  0.127378 *  0.765143 *   0.00000    1.000000    
    228 O2    c    0.649308 *  0.813059 *  0.423171 *   0.00000    1.000000    
    229 O2    c    0.699241 *  0.714190 *  0.637833 *   0.00000    1.000000    
    230 O2    c    0.375256 *  0.124695 *  0.465783 *   0.00000    1.000000    
    231 O2    c    0.556434 *  0.689847 *  0.416737 *   0.00000    1.000000    
    232 O2    c    0.434958 *  0.452608 *  0.167786 *   0.00000    1.000000    
    233 O2    c    0.786840 *  0.864419 *  0.961215 *   0.00000    1.000000    
    234 O2    c    0.847456 *  0.097990 *  0.537537 *   0.00000    1.000000    
    235 O2    c    0.388229 *  0.335509 *  0.719171 *   0.00000    1.000000    
    236 O2    c    0.777019 *  0.035577 *  0.821862 *   0.00000    1.000000    
    237 O2    c    0.231952 *  0.697687 *  0.990642 *   0.00000    1.000000    
    238 O2    c    0.072844 *  0.370270 *  0.397130 *   0.00000    1.000000    
    239 O2    c    0.393455 *  0.912539 *  0.010710 *   0.00000    1.000000    
    240 O2    c    0.446075 *  0.702073 *  0.830821 *   0.00000    1.000000    
    241 O2    c    0.479437 *  0.107874 *  0.949898 *   0.00000    1.000000    
    242 O2    c    0.761386 *  0.224928 *  0.710044 *   0.00000    1.000000    
    243 O2    c    0.053632 *  0.893820 *  0.646082 *   0.00000    1.000000    
    244 O2    c    0.811556 *  0.652744 *  0.982995 *   0.00000    1.000000    
    245 O2    c    0.394015 *  0.625589 *  0.081127 *   0.00000    1.000000    
    246 O2    c    0.764260 *  0.289748 *  0.580686 *   0.00000    1.000000    
    247 O2    c    0.754415 *  0.974369 *  0.161946 *   0.00000    1.000000    
    248 O2    c    0.793131 *  0.169614 *  0.279509 *   0.00000    1.000000    
    249 O2    c    0.088863 *  0.578727 *  0.262651 *   0.00000    1.000000    
    250 O2    c    0.047498 *  0.196900 *  0.311617 *   0.00000    1.000000    
    251 O2    c    0.268756 *  0.791768 *  0.099234 *   0.00000    1.000000    
    252 O2    c    0.842192 *  0.176918 *  0.953310 *   0.00000    1.000000    
    253 O2    c    0.607800 *  0.541907 *  0.800393 *   0.00000    1.000000    
    254 O2    c    0.931074 *  0.745953 *  0.688027 *   0.00000    1.000000    
    255 O2    c    0.260929 *  0.516360 *  0.379503 *   0.00000    1.000000    
    256 O2    c    0.278631 *  0.717481 *  0.324736 *   0.00000    1.000000    
    257 O2    c    0.517373    0.817478    0.488875     0.00000    1.000000    
--------------------------------------------------------------------------------



********************************************************************************
*  General input information                                                   *
********************************************************************************

  Species output for all configurations : 

--------------------------------------------------------------------------------
  Species    Type    Atomic    Atomic    Charge       Radii (Angs)     Library
                     Number     Mass       (e)     Cova   Ionic  VDW   Symbol
--------------------------------------------------------------------------------
    Ca       Core       20      40.08   2.000000   0.990  0.000  2.750          
    O2       Core        8      18.00   0.000000   0.730  0.000  1.360          
--------------------------------------------------------------------------------


  Lattice summation method               =    Ewald          (3-D)
                                         =    Parry          (2-D)
                                         =    Saunders et al (1-D)
  Accuracy factor for lattice sums       =   12.000


  Analytic derivatives to be used

  Time limit = Infinity

  Polarisability species : 

  Charge-dipole interaction will be saturated using a Langevin function 

--------------------------------------------------------------------------------
  Species    Type    Dipolar polarisability      Saturation dipole moment       
                           (Angs**3)                     (q.Angs)               
--------------------------------------------------------------------------------
    O2       core             2.370000                       0.313000
--------------------------------------------------------------------------------



  Bond-order one-body potentials :

--------------------------------------------------------------------------------
Atom  Type            AlphaA               AlphaB          nA       nB          
--------------------------------------------------------------------------------
O    c             0.0000000000         0.0000010000     0.7700   0.7700
--------------------------------------------------------------------------------

  Bond-order two-body potentials :

--------------------------------------------------------------------------------
Atom  Types                 A                 B                  Cutoffs(Ang)   
  1     2                 ZetaA             ZetaB                Taper    Max   
--------------------------------------------------------------------------------
O    c O    c          1684.3014760000       473.6214190000     3.0122   3.5533
                          2.750522000          2.199640000    
--------------------------------------------------------------------------------

  Bond-order repulsive :

--------------------------------------------------------------------------------
Atom    Type         Omega            Lambda          M                           
 1/2     1/2                                                                    
--------------------------------------------------------------------------------
O    c             1.00000000       0.00000000        1
O    c
--------------------------------------------------------------------------------

  Bond-order attractive :

--------------------------------------------------------------------------------
Atom    Type         Omega            Lambda          M                           
 1/2     1/2           C              D                H                        
--------------------------------------------------------------------------------
O    c  Theta       1.00000000       0.00000000       1
O    c          77638.53435400      16.14838700      -0.47102900
--------------------------------------------------------------------------------

********************************************************************************
*  Output for configuration   1                                                *
********************************************************************************


  Components of energy : 

--------------------------------------------------------------------------------
  Interatomic potentials     =           0.00000000 eV    
  Bond-order potentials      =        -101.53874275 eV    
  Monopole - monopole (real) =           0.00061052 eV    
  Monopole - monopole (recip)=          -3.60777817 eV    
  Monopole - monopole (total)=          -3.60716765 eV    
  Polarisation energy        =          -1.67789040 eV    
  Neutralising energy        =          -0.58613211 eV    
--------------------------------------------------------------------------------
  Total lattice energy       =        -107.40993291 eV    
--------------------------------------------------------------------------------
  Total lattice energy       =          -10363.4166 kJ/(mole unit cells)
--------------------------------------------------------------------------------


  Final internal derivatives :

--------------------------------------------------------------------------------
   No.  Atomic          a             b             c           Radius
        Label          (eV)          (eV)          (eV)        (eV/Angs)
--------------------------------------------------------------------------------
      1 Ca    c       0.404178     -1.536052     -1.515304      0.000000
      2 O2    c       0.035787     -0.012349     -0.004493      0.000000
      3 O2    c       0.072037      0.054737     -0.011513      0.000000
      4 O2    c       0.023940     -0.008442      0.016252      0.000000
      5 O2    c      -0.007322      0.011358     -0.069212      0.000000
      6 O2    c       0.006304      0.005521      0.000222      0.000000
      7 O2    c      -0.011987      0.044100     -0.040572      0.000000
      8 O2    c      -0.030049      0.016816      0.000209      0.000000
      9 O2    c       0.000102     -0.011149      0.018006      0.000000
     10 O2    c       0.396466      1.232928     -0.469625      0.000000
     11 O2    c       0.321168     -0.061524     -0.195897      0.000000
     12 O2    c      -0.046408      0.007083     -0.015821      0.000000
     13 O2    c      -0.348759      0.004344     -0.073501      0.000000
     14 O2    c       0.002174      0.003187     -0.001252      0.000000
     15 O2    c      -0.002520      0.001701     -0.002756      0.000000
     16 O2    c      -0.002892     -0.000002     -0.005069      0.000000
     17 O2    c      -0.000380     -0.006176     -0.005845      0.000000
     18 O2    c       0.028842      0.165300     -0.028541      0.000000
     19 O2    c       0.000708      0.000437      0.004587      0.000000
     20 O2    c      -0.001087     -0.001881      0.001095      0.000000
     21 O2    c       0.000391      0.010103     -0.011711      0.000000
     22 O2    c      -0.001417      0.004848      0.009275      0.000000
     23 O2    c       0.005937      0.011403      0.020615      0.000000
     24 O2    c      -0.048676      0.203134     -0.510730      0.000000
     25 O2    c      -0.001969      0.003284      0.001076      0.000000
     26 O2    c      -0.002637     -0.017970     -0.004382      0.000000
     27 O2    c      -0.000695     -0.017165     -0.005450      0.000000
     28 O2    c      -0.006901      0.000230     -0.007851      0.000000
     29 O2    c      -0.006235      0.002800     -0.005809      0.000000
     30 O2    c      -0.034417      0.017881     -0.009599      0.000000
     31 O2    c       0.023066      0.062515      0.014684      0.000000
     32 O2    c       0.054235      0.019144      0.019785      0.000000
     33 O2    c      -0.004570      0.000628     -0.002846      0.000000
     34 O2    c      -0.006916      0.016751     -0.000322      0.000000
     35 O2    c      -0.003788     -0.006597     -0.017959      0.000000
     36 O2    c       0.005229      0.001212      0.000675      0.000000
     37 O2    c       0.000031     -0.005393     -0.005616      0.000000
     38 O2    c      -0.009402      0.146822      0.171705      0.000000
     39 O2    c       0.003372     -0.002208      0.000156      0.000000
     40 O2    c      -0.020503      0.004897     -0.018092      0.000000
     41 O2    c       0.008765     -0.066547      0.037422      0.000000
     42 O2    c      -0.002226      0.002430      0.001918      0.000000
     43 O2    c      -0.058884     -0.205589     -0.445117      0.000000
     44 O2    c       0.004322     -0.007341      0.057221      0.000000
     45 O2    c      -0.045173      0.081183      0.055823      0.000000
     46 O2    c       0.068184      0.014612      0.001042      0.000000
     47 O2    c       0.010856      0.001766      0.001700      0.000000
     48 O2    c      -0.016151     -0.098957     -0.018264      0.000000
     49 O2    c      -0.027790      0.000002      0.006075      0.000000
     50 O2    c      -0.054918     -0.047745     -0.040044      0.000000
     51 O2    c       0.003661     -0.004218      0.000489      0.000000
     52 O2    c      -0.006598      0.036895      0.013668      0.000000
     53 O2    c       0.001093      0.052072      0.008313      0.000000
     54 O2    c       0.012174      0.000094      0.011950      0.000000
     55 O2    c      -0.000519     -0.035948     -0.004310      0.000000
     56 O2    c       0.015582      0.015048      0.015029      0.000000
     57 O2    c       0.007534     -0.008583     -0.009334      0.000000
     58 O2    c       0.001701      0.001557      0.000896      0.000000
     59 O2    c      -0.017941     -0.001888      0.015421      0.000000
     60 O2    c       0.080903     -0.019825      0.048388      0.000000
     61 O2    c      -0.000841      0.022391      0.000569      0.000000
     62 O2    c       0.002068     -0.002157     -0.003148      0.000000
     63 O2    c       0.020894      0.026682     -0.007455      0.000000
     64 O2    c      -0.000431      0.001706     -0.001723      0.000000
     65 O2    c       0.000728      0.001569     -0.003685      0.000000
     66 O2    c      -0.005663     -0.024565      0.004544      0.000000
     67 O2    c       0.048553      0.080148     -0.120440      0.000000
     68 O2    c      -2.169046      1.664272      0.017004      0.000000
     69 O2    c       0.027906      0.017903      0.102892      0.000000
     70 O2    c      -0.000486      0.000746     -0.008988      0.000000
     71 O2    c      -0.007635     -0.006942      0.006323      0.000000
     72 O2    c      -0.036052     -0.051564      0.051994      0.000000
     73 O2    c       0.023378      0.011313     -0.008618      0.000000
     74 O2    c      -0.005395     -0.005668      0.000633      0.000000
     75 O2    c      -0.003162      0.003009     -0.000967      0.000000
     76 O2    c       0.018473     -0.045655      0.073508      0.000000
     77 O2    c      -0.193762     -0.145226      0.241331      0.000000
     78 O2    c      -0.033232      0.047448     -0.023500      0.000000
     79 O2    c      -0.000324     -0.004501      0.003607      0.000000
     80 O2    c       0.013207     -0.143534      0.017846      0.000000
     81 O2    c       0.006656      0.019501     -0.008332      0.000000
     82 O2    c      -0.000367     -0.001803     -0.000721      0.000000
     83 O2    c      -0.029668      0.000005      0.002556      0.000000
     84 O2    c      -0.037660     -0.008673     -0.059499      0.000000
     85 O2    c       0.298200     -0.798573     -0.000295      0.000000
     86 O2    c       0.110682     -0.175739     -0.162988      0.000000
     87 O2    c       0.006985     -0.004137     -0.021498      0.000000
     88 O2    c      -0.006561     -0.005990      0.001250      0.000000
     89 O2    c       0.000891     -0.000731      0.006571      0.000000
     90 O2    c       0.006120     -0.016581      0.000251      0.000000
     91 O2    c       0.007578      0.001279     -0.007891      0.000000
     92 O2    c      -0.040271     -0.010146      0.014758      0.000000
     93 O2    c       0.012824      0.009081      0.000817      0.000000
     94 O2    c      -0.005069      0.022870     -0.008776      0.000000
     95 O2    c       0.000685      0.001265      0.001527      0.000000
     96 O2    c      -0.023993     -0.010762     -0.022899      0.000000
     97 O2    c      -0.002837     -0.001566     -0.002734      0.000000
     98 O2    c      -0.045756     -0.002415     -0.000314      0.000000
     99 O2    c      -0.000446      0.000408      0.023121      0.000000
    100 O2    c      -0.009099      0.005303     -0.003065      0.000000
    101 O2    c      -0.001053     -0.000827      0.001067      0.000000
    102 O2    c      -0.005177      0.001887      0.015450      0.000000
    103 O2    c      -0.000848      0.008625     -0.008088      0.000000
    104 O2    c       0.004618      0.000957     -0.001632      0.000000
    105 O2    c       0.095977      0.147133      0.103708      0.000000
    106 O2    c       0.020842      0.001115      0.004951      0.000000
    107 O2    c      -0.073955      0.058660      0.019148      0.000000
    108 O2    c      -0.006629      0.000209      0.006630      0.000000
    109 O2    c      -0.000491     -0.008276     -0.000618      0.000000
    110 O2    c       0.003381      0.005628     -0.005003      0.000000
    111 O2    c       0.014083      0.050485     -0.003386      0.000000
    112 O2    c      -0.010942     -0.009581     -0.005508      0.000000
    113 O2    c       0.018994     -0.001949     -0.009834      0.000000
    114 O2    c       0.086765     -0.005188     -0.022934      0.000000
    115 O2    c       0.004066     -0.000981      0.024151      0.000000
    116 O2    c       0.006695      0.005799      0.000219      0.000000
    117 O2    c       0.009497      0.030396     -0.030141      0.000000
    118 O2    c       0.141115      0.074851     -0.095272      0.000000
    119 O2    c      -0.018611      0.007267      0.012984      0.000000
    120 O2    c      -0.001171      0.012119     -0.020988      0.000000
    121 O2    c      -0.000023     -0.013580     -0.004096      0.000000
    122 O2    c       0.005340     -0.012096      0.023081      0.000000
    123 O2    c       0.000665      0.028796      0.000713      0.000000
    124 O2    c       0.010927      0.003100     -0.037030      0.000000
    125 O2    c       0.000428     -0.001871     -0.001855      0.000000
    126 O2    c      -0.007291     -0.008171     -0.000167      0.000000
    127 O2    c       0.008703     -0.002368     -0.009508      0.000000
    128 O2    c       0.004586     -0.001669      0.004607      0.000000
    129 O2    c      -0.365869      0.237562      1.004683      0.000000
    130 O2    c       0.006535      0.013846     -0.050626      0.000000
    131 O2    c       0.622079      0.311514      0.160836      0.000000
    132 O2    c       0.097306     -0.046218      0.169156      0.000000
    133 O2    c       0.003153     -0.002521     -0.001593      0.000000
    134 O2    c      -0.000860      0.015802      0.011702      0.000000
    135 O2    c       0.002751     -0.002321     -0.000903      0.000000
    136 O2    c      -0.002360      0.003932      0.000406      0.000000
    137 O2    c      -0.003162      0.004281     -0.000756      0.000000
    138 O2    c       0.001431     -0.001577      0.000631      0.000000
    139 O2    c       0.002917      0.000925      0.011259      0.000000
    140 O2    c      -0.000264     -0.002002     -0.008013      0.000000
    141 O2    c       0.019839      0.002181     -0.019497      0.000000
    142 O2    c      -0.003094      0.003252      0.003249      0.000000
    143 O2    c       0.161257     -0.002475      0.022017      0.000000
    144 O2    c      -0.019583     -0.012270      0.020422      0.000000
    145 O2    c      -0.018891     -0.014087     -0.109841      0.000000
    146 O2    c      -0.001365     -0.032171      0.007932      0.000000
    147 O2    c       0.007622     -0.020873     -0.010304      0.000000
    148 O2    c       0.010478      0.003920      0.005890      0.000000
    149 O2    c       0.004829     -0.004816     -0.002398      0.000000
    150 O2    c      -0.012073      0.001029     -0.026531      0.000000
    151 O2    c      -0.009086      0.024632      0.003564      0.000000
    152 O2    c       0.002468     -0.043238     -0.001996      0.000000
    153 O2    c      -0.009234     -0.011962      0.034173      0.000000
    154 O2    c      -0.001885      0.003409      0.000677      0.000000
    155 O2    c      -0.002927     -0.007833      0.007360      0.000000
    156 O2    c       0.000613      0.012282      0.005706      0.000000
    157 O2    c      -0.011514     -0.000445     -0.007922      0.000000
    158 O2    c       0.000259     -0.005215      0.005403      0.000000
    159 O2    c      -0.001575      0.001479     -0.000349      0.000000
    160 O2    c      -0.001408      0.004886     -0.004197      0.000000
    161 O2    c       0.003913     -0.000774      0.003843      0.000000
    162 O2    c      -0.012823      0.000430      0.026905      0.000000
    163 O2    c       0.045397      0.030546      0.053663      0.000000
    164 O2    c       0.000807      0.004059      0.001399      0.000000
    165 O2    c       0.011193     -0.002567      0.036805      0.000000
    166 O2    c       0.000192      0.003900      0.000070      0.000000
    167 O2    c       0.003399      0.006198      0.006271      0.000000
    168 O2    c      -0.007021     -0.001545      0.000176      0.000000
    169 O2    c      -0.008685      0.008349      0.000150      0.000000
    170 O2    c       0.214936     -0.133124      0.004988      0.000000
    171 O2    c      -0.008174      0.001450      0.094534      0.000000
    172 O2    c       0.048965     -0.019385     -0.028535      0.000000
    173 O2    c      -0.124689      0.024178      0.022089      0.000000
    174 O2    c      -0.037099     -0.102143     -0.083883      0.000000
    175 O2    c       0.021005     -0.040902      0.017873      0.000000
    176 O2    c      -0.035641     -0.048804      0.015770      0.000000
    177 O2    c       0.030645     -0.000907      0.006668      0.000000
    178 O2    c      -0.042519      0.000630      0.000288      0.000000
    179 O2    c      -0.003961     -0.000906      0.000606      0.000000
    180 O2    c       0.006720     -0.047622      0.002892      0.000000
    181 O2    c       0.002559     -0.002030      0.002220      0.000000
    182 O2    c      -0.000595      0.004099     -0.000500      0.000000
    183 O2    c      -0.000370      0.000775     -0.005341      0.000000
    184 O2    c      -0.020473     -0.014463      0.000034      0.000000
    185 O2    c      -0.000453     -0.000439      0.031087      0.000000
    186 O2    c      -0.338971     -0.558410      0.093690      0.000000
    187 O2    c       0.004850     -0.000113     -0.005301      0.000000
    188 O2    c       0.002156      0.000257      0.003666      0.000000
    189 O2    c      -0.000646      0.009649      0.021980      0.000000
    190 O2    c       0.004934     -0.012213      0.005984      0.000000
    191 O2    c      -0.000750      0.000465     -0.001066      0.000000
    192 O2    c      -0.027255      0.057524     -0.000647      0.000000
    193 O2    c      -0.000006      0.001928      0.004692      0.000000
    194 O2    c       0.035479      0.002468      0.038796      0.000000
    195 O2    c       0.001964     -0.000602     -0.001776      0.000000
    196 O2    c       0.007283      0.007758      0.000224      0.000000
    197 O2    c       0.000546     -0.002779     -0.001414      0.000000
    198 O2    c      -0.008288      0.010662     -0.006608      0.000000
    199 O2    c      -0.059091     -0.028978      0.007189      0.000000
    200 O2    c      -0.005897     -0.000116      0.005517      0.000000
    201 O2    c       0.025268     -0.007800      0.001227      0.000000
    202 O2    c      -0.000144     -0.011565     -0.011927      0.000000
    203 O2    c      -0.016147     -0.002886      0.000016      0.000000
    204 O2    c      -0.001859     -0.004192     -0.004333      0.000000
    205 O2    c       0.033427     -0.028787     -0.059976      0.000000
    206 O2    c       0.004613      0.003770     -0.010679      0.000000
    207 O2    c      -0.018799      0.001088      0.002072      0.000000
    208 O2    c      -0.007341      0.006422      0.006069      0.000000
    209 O2    c       0.036811      0.033333      0.008808      0.000000
    210 O2    c       0.003703      0.001010      0.000356      0.000000
    211 O2    c       0.029564     -0.063247     -0.024247      0.000000
    212 O2    c      -0.003246      0.000073     -0.031746      0.000000
    213 O2    c      -0.048086      0.008834      0.083584      0.000000
    214 O2    c      -0.004900     -0.000378     -0.005645      0.000000
    215 O2    c      -0.008986     -0.002545     -0.003328      0.000000
    216 O2    c       0.003024      0.061709     -0.026224      0.000000
    217 O2    c       0.009277     -0.001272      0.012764      0.000000
    218 O2    c       0.048552      0.010442     -0.023407      0.000000
    219 O2    c      -0.020028      0.125700      0.016357      0.000000
    220 O2    c       0.008160      0.021280      0.007426      0.000000
    221 O2    c      -0.018465     -0.029058     -0.009583      0.000000
    222 O2    c      -0.013409      0.012008      0.001985      0.000000
    223 O2    c       1.207314     -0.599477      1.587273      0.000000
    224 O2    c       0.003803      0.001996     -0.000384      0.000000
    225 O2    c       0.001401      0.005233      0.000665      0.000000
    226 O2    c      -0.005117     -0.021847      0.020714      0.000000
    227 O2    c      -0.052053      0.051224     -0.099870      0.000000
    228 O2    c      -0.006431     -0.001326      0.007343      0.000000
    229 O2    c      -0.007281     -0.006662     -0.009686      0.000000
    230 O2    c       0.005349     -0.000535      0.003662      0.000000
    231 O2    c      -0.002212     -0.001712      0.002662      0.000000
    232 O2    c       0.003551      0.002969     -0.000621      0.000000
    233 O2    c      -0.164544     -0.101822     -0.028724      0.000000
    234 O2    c       0.001421     -0.001447     -0.017319      0.000000
    235 O2    c       0.007098      0.005974     -0.004265      0.000000
    236 O2    c      -0.106953      0.016062     -0.083313      0.000000
    237 O2    c       0.032541     -0.047326     -0.001141      0.000000
    238 O2    c       0.000234      0.009677      0.010576      0.000000
    239 O2    c       0.055018     -0.004805      0.000556      0.000000
    240 O2    c       0.008188     -0.005241     -0.001107      0.000000
    241 O2    c       0.014390     -0.004949      0.002548      0.000000
    242 O2    c      -0.018323      0.016937     -0.024138      0.000000
    243 O2    c       0.006240     -0.012691     -0.064752      0.000000
    244 O2    c      -0.019450     -0.048952     -0.001553      0.000000
    245 O2    c       0.010307     -0.009677      0.000282      0.000000
    246 O2    c      -0.003567      0.005547     -0.009159      0.000000
    247 O2    c      -0.107070     -0.010275      0.066988      0.000000
    248 O2    c      -0.027278      0.021612      0.040378      0.000000
    249 O2    c       0.000975     -0.017813      0.007037      0.000000
    250 O2    c       0.006499      0.029480      0.055141      0.000000
    251 O2    c       0.056067     -0.040644      0.018110      0.000000
    252 O2    c      -0.150404      0.169536     -0.043760      0.000000
    253 O2    c      -0.004447     -0.003117     -0.000248      0.000000
    254 O2    c      -0.006000     -0.026706     -0.036404      0.000000
    255 O2    c       0.001215     -0.001055      0.003527      0.000000
    256 O2    c       0.009925     -0.010145      0.012628      0.000000
    257 O2    c       0.000000      0.000000      0.000000      0.000000
--------------------------------------------------------------------------------
  Maximum abs         2.169046      1.664272      1.587273      0.000000
--------------------------------------------------------------------------------


  Time to end of gradients =       0.0365 seconds


  Peak dynamic memory used =       2.66 MB 


  Timing analysis for GULP :

--------------------------------------------------------------------------------
  Task / Subroutine                                          Time (Seconds)
--------------------------------------------------------------------------------
  Calculation of reciprocal space energy and derivatives          0.0027
  Calculation of real space energy and derivatives                0.0025
  Calculation of Bond Order energy and derivatives                0.0049
  Calculation of polarisation energy and derivatives              0.0123
--------------------------------------------------------------------------------
  Total CPU time                                                  0.0366
--------------------------------------------------------------------------------


  Job Finished at 09:23.00 22nd December   2020                               

