********************************************************************************
*                       GENERAL UTILITY LATTICE PROGRAM                        *
*                                 Julian Gale                                  *
*                       Curtin Institute for Computation                       *
*                    School of Molecular and Life Sciences                     *
*                    Curtin University, Western Australia                      *
********************************************************************************
* Version = 6.0.0 * Last modified =   7th July 2020                            *
********************************************************************************
*  single       - perform a single point run                                   *
*  md           - perform molecular dynamics run                               *
*  conp         - constant pressure calculation                                *
********************************************************************************

  Job Started  at 11:41.11  8th July       2020                               

  Number of CPUs =     1

  Host name      = M-A0034725                              


  Total number of configurations input =      1

********************************************************************************
*  Input for Configuration =   1                                               *
********************************************************************************

  Formula = Si12O24                                                     

  Number of irreducible atoms/shells =      60


  Total number atoms/shells =      60

  Dimensionality = 3               :  Bulk   



  Cartesian lattice vectors (Angstroms) :

        6.771494    3.909524    4.855125
       -6.771494    3.909524    4.855125
        0.000000   -7.819048    4.855125

  Cell parameters (Angstroms/Degrees):

  a =       9.2038    alpha =  94.7377
  b =       9.2038    beta  =  94.7377
  c =       9.2038    gamma =  94.7377

  Initial cell volume =         771.187657 Angs**3

  Temperature of configuration =   300.     K 

  Pressure of configuration =         0.000 GPa 

  Fractional coordinates of asymmetric unit :

--------------------------------------------------------------------------------
   No.  Atomic       x           y          z         Charge      Occupancy
        Label      (Frac)      (Frac)     (Frac)        (e)         (Frac)  
--------------------------------------------------------------------------------
      1 Si    c    0.106332 *  0.333397 *  0.878375 *   4.00000    1.000000    
      2 Si    c    0.878375 *  0.106332 *  0.333397 *   4.00000    1.000000    
      3 Si    c    0.333397 *  0.878375 *  0.106332 *   4.00000    1.000000    
      4 Si    c    0.666603 *  0.893668 *  0.121625 *   4.00000    1.000000    
      5 Si    c    0.893668 *  0.121625 *  0.666603 *   4.00000    1.000000    
      6 Si    c    0.121625 *  0.666603 *  0.893668 *   4.00000    1.000000    
      7 Si    c    0.893668 *  0.666603 *  0.121625 *   4.00000    1.000000    
      8 Si    c    0.121625 *  0.893668 *  0.666603 *   4.00000    1.000000    
      9 Si    c    0.666603 *  0.121625 *  0.893668 *   4.00000    1.000000    
     10 Si    c    0.333397 *  0.106332 *  0.878375 *   4.00000    1.000000    
     11 Si    c    0.106332 *  0.878375 *  0.333397 *   4.00000    1.000000    
     12 Si    c    0.878375 *  0.333397 *  0.106332 *   4.00000    1.000000    
     13 O     c    0.259238 *  0.740762 *  0.000000 *   0.86902    1.000000    
     14 O     c    0.000000 *  0.259238 *  0.740762 *   0.86902    1.000000    
     15 O     c    0.740762 *  0.000000 *  0.259238 *   0.86902    1.000000    
     16 O     c    0.740762 *  0.259238 *  0.000000 *   0.86902    1.000000    
     17 O     c    0.000000 *  0.740762 *  0.259238 *   0.86902    1.000000    
     18 O     c    0.259238 *  0.000000 *  0.740762 *   0.86902    1.000000    
     19 O     c    0.150065 *  0.849935 *  0.500000 *   0.86902    1.000000    
     20 O     c    0.500000 *  0.150065 *  0.849935 *   0.86902    1.000000    
     21 O     c    0.849935 *  0.500000 *  0.150065 *   0.86902    1.000000    
     22 O     c    0.849935 *  0.150065 *  0.500000 *   0.86902    1.000000    
     23 O     c    0.500000 *  0.849935 *  0.150065 *   0.86902    1.000000    
     24 O     c    0.150065 *  0.500000 *  0.849935 *   0.86902    1.000000    
     25 O     c    0.253778 *  0.253778 *  0.897094 *   0.86902    1.000000    
     26 O     c    0.897094 *  0.253778 *  0.253778 *   0.86902    1.000000    
     27 O     c    0.253778 *  0.897094 *  0.253778 *   0.86902    1.000000    
     28 O     c    0.746222 *  0.746222 *  0.102906 *   0.86902    1.000000    
     29 O     c    0.746222 *  0.102906 *  0.746222 *   0.86902    1.000000    
     30 O     c    0.102906 *  0.746222 *  0.746222 *   0.86902    1.000000    
     31 O     c    0.026519 *  0.026519 *  0.323465 *   0.86902    1.000000    
     32 O     c    0.323465 *  0.026519 *  0.026519 *   0.86902    1.000000    
     33 O     c    0.026519 *  0.323465 *  0.026519 *   0.86902    1.000000    
     34 O     c    0.973481 *  0.973481 *  0.676535 *   0.86902    1.000000    
     35 O     c    0.973481 *  0.676535 *  0.973481 *   0.86902    1.000000    
     36 O     c    0.676535 *  0.973481 *  0.973481 *   0.86902    1.000000    
     37 O     s    0.259238 *  0.740762 *  0.000000 *  -2.86902    1.000000    
     38 O     s    0.000000 *  0.259238 *  0.740762 *  -2.86902    1.000000    
     39 O     s    0.740762 *  0.000000 *  0.259238 *  -2.86902    1.000000    
     40 O     s    0.740762 *  0.259238 *  0.000000 *  -2.86902    1.000000    
     41 O     s    0.000000 *  0.740762 *  0.259238 *  -2.86902    1.000000    
     42 O     s    0.259238 *  0.000000 *  0.740762 *  -2.86902    1.000000    
     43 O     s    0.150065 *  0.849935 *  0.500000 *  -2.86902    1.000000    
     44 O     s    0.500000 *  0.150065 *  0.849935 *  -2.86902    1.000000    
     45 O     s    0.849935 *  0.500000 *  0.150065 *  -2.86902    1.000000    
     46 O     s    0.849935 *  0.150065 *  0.500000 *  -2.86902    1.000000    
     47 O     s    0.500000 *  0.849935 *  0.150065 *  -2.86902    1.000000    
     48 O     s    0.150065 *  0.500000 *  0.849935 *  -2.86902    1.000000    
     49 O     s    0.253778 *  0.253778 *  0.897094 *  -2.86902    1.000000    
     50 O     s    0.897094 *  0.253778 *  0.253778 *  -2.86902    1.000000    
     51 O     s    0.253778 *  0.897094 *  0.253778 *  -2.86902    1.000000    
     52 O     s    0.746222 *  0.746222 *  0.102906 *  -2.86902    1.000000    
     53 O     s    0.746222 *  0.102906 *  0.746222 *  -2.86902    1.000000    
     54 O     s    0.102906 *  0.746222 *  0.746222 *  -2.86902    1.000000    
     55 O     s    0.026519 *  0.026519 *  0.323465 *  -2.86902    1.000000    
     56 O     s    0.323465 *  0.026519 *  0.026519 *  -2.86902    1.000000    
     57 O     s    0.026519 *  0.323465 *  0.026519 *  -2.86902    1.000000    
     58 O     s    0.973481 *  0.973481 *  0.676535 *  -2.86902    1.000000    
     59 O     s    0.973481 *  0.676535 *  0.973481 *  -2.86902    1.000000    
     60 O     s    0.676535 *  0.973481 *  0.973481 *  -2.86902    1.000000    
--------------------------------------------------------------------------------



********************************************************************************
*  General input information                                                   *
********************************************************************************

  Species output for all configurations : 

--------------------------------------------------------------------------------
  Species    Type    Atomic    Atomic    Charge       Radii (Angs)     Library
                     Number     Mass       (e)     Cova   Ionic  VDW   Symbol
--------------------------------------------------------------------------------
    Si       Core       14      28.09   4.000000   1.200  0.000  2.100          
    O        Core        8      14.40   0.869020   0.730  0.000  1.360          
    O        Shell       8       1.60  -2.869020   0.730  0.000  1.360          
--------------------------------------------------------------------------------


  Lattice summation method               =    Ewald          (3-D)
                                         =    Parry          (2-D)
                                         =    Saunders et al (1-D)
  Accuracy factor for lattice sums       =   12.000


  Analytic derivatives to be used

  Time limit = Infinity

  Maximum range for interatomic potentials =        12.000000 Angstroms

  Taper potentials to zero over   1.0000 Angstroms using polynomial

  General interatomic potentials :

--------------------------------------------------------------------------------
Atom  Types   Potential      Parameter       Value         Units   Cutoffs(Ang)
  1     2                                                            Min /  Max 
--------------------------------------------------------------------------------
Si   c O    s Buckingham    Buckingham A     1283.9070    eV        0.000 12.000
                            Buckingham rho  0.32052000    Ang       
                            Buckingham C     10.661580    eV*Ang^6  
--------------------------------------------------------------------------------
O    s O    s Buckingham    Buckingham A     22764.000    eV        0.000 12.000
                            Buckingham rho  0.14900000    Ang       
                            Buckingham C     27.879000    eV*Ang^6  
--------------------------------------------------------------------------------
O    c O    s Spring (c-s)  Spring k 2       74.920000    eV*Ang^-2 0.000  0.800
                            Spring k 4       0.0000000    eV*Ang^-4 
--------------------------------------------------------------------------------

  General Three-body potentials :

--------------------------------------------------------------------------------
  Atoms       Potential      Parameter       Value         Units   Cutoffs(Ang)
  1 / 2 / 3                                                          Min /  Max 
--------------------------------------------------------------------------------
Si    core    Harmonic      Three-body cnst  2.0972400    eV*rad^-2 0.000  1.900
O     shel                  Three-body angl  109.47000    degrees   0.000  1.900
O     shel                  Three-body k4    0.0000000    eV*rad^-4 0.000  3.600
                            Three-body k3    0.0000000    eV*rad^-3 
--------------------------------------------------------------------------------

********************************************************************************
*  Output for configuration   1                                                *
********************************************************************************


  Components of energy : 

--------------------------------------------------------------------------------
  Interatomic potentials     =         378.85222191 eV    
  Three-body potentials      =           0.05863266 eV    
  Monopole - monopole (real) =       -1269.81289803 eV    
  Monopole - monopole (recip)=        -633.48791574 eV    
  Monopole - monopole (total)=       -1903.30081377 eV    
--------------------------------------------------------------------------------
  Total lattice energy       =       -1524.38995920 eV    
--------------------------------------------------------------------------------
  Total lattice energy       =         -147080.3286 kJ/(mole unit cells)
--------------------------------------------------------------------------------

  Equations of motion will be integrated using the leapfrog Verlet algorithm.

  Core-shell wave numbers:

    O   :    3761.37 cm**(-1)

  Above wave numbers must be larger than the vibrational modes for this system.


********************************************************************************
*  Molecular Dynamics                                                          *
********************************************************************************

  Isothermal/baric ensemble (NPT) to be used

  Friction for temperature bath =           0.005000
  Friction for pressure    bath =           0.005000

  No. of mobile ions        =                 36

  No. of degrees of freedom =                105

  Time step                 =           0.000100 ps
  Equilibration time        =           1.000000 ps
  Production time           =           1.000000 ps
  Scaling time              =           1.000000 ps
  Scaling frequency         =           0.000100 ps
  Sampling frequency        =           0.005000 ps
  Write frequency           =           0.002000 ps
  TD-Force start time       =           0.000000 ps
  TD-Field start time       =           0.000000 ps



  Molecular dynamics equilibration :

  ** Time :            0.00500 ps :
     Properties:                   Instantaneous       Averaged
       Kinetic energy    (eV) =       1.362926          1.362926
       Potential energy  (eV) =   -1536.147517      -1536.147517
       Total energy      (eV) =   -1534.784591      -1534.784591
       Temperature       (K)  =     301.258648        301.258648
       C/S temperature   (K)  =       1.194674          1.194674
       Pressure         (GPa) =      -0.529820         -0.529820
       Cell parameter : a (A) =       9.202640          9.202640
       Cell parameter : b (A) =       9.202555          9.202555
       Cell parameter : c (A) =       9.202875          9.202875
       Cell angle : alpha (o) =      94.740138         94.740138
       Cell angle : beta  (o) =      94.741138         94.741138
       Cell angle : gamma (o) =      94.737793         94.737793
       Cell volume :   (A**3) =     770.903784        770.903784
  ** Time :            0.01000 ps :
     Properties:                   Instantaneous       Averaged
       Kinetic energy    (eV) =       1.358024          1.360475
       Potential energy  (eV) =   -1539.625478      -1537.886498
       Total energy      (eV) =   -1538.267454      -1536.526023
       Temperature       (K)  =     300.175204        300.716926
       C/S temperature   (K)  =       0.024510          0.609592
       Pressure         (GPa) =       1.411493          0.440865
       Cell parameter : a (A) =       9.202978          9.202809
       Cell parameter : b (A) =       9.202727          9.202641
       Cell parameter : c (A) =       9.203575          9.203225
       Cell angle : alpha (o) =      94.746258         94.743198
       Cell angle : beta  (o) =      94.748796         94.744967
       Cell angle : gamma (o) =      94.740129         94.738961
       Cell volume :   (A**3) =     770.985339        770.944561
  ** Time :            0.01500 ps :
     Properties:                   Instantaneous       Averaged
       Kinetic energy    (eV) =       1.355455          1.358801
       Potential energy  (eV) =   -1539.674102      -1538.482366
       Total energy      (eV) =   -1538.318647      -1537.123564
       Temperature       (K)  =     299.607291        300.347048
       C/S temperature   (K)  =       0.929492          0.716225
       Pressure         (GPa) =       3.031188          1.304153
       Cell parameter : a (A) =       9.204670          9.203429
       Cell parameter : b (A) =       9.204313          9.203198
       Cell parameter : c (A) =       9.205424          9.203958
       Cell angle : alpha (o) =      94.754530         94.746975
       Cell angle : beta  (o) =      94.757496         94.749143
       Cell angle : gamma (o) =      94.747085         94.741669
       Cell volume :   (A**3) =     771.385516        771.091546
  ** Time :            0.02000 ps :
     Properties:                   Instantaneous       Averaged
       Kinetic energy    (eV) =       1.358183          1.358647
       Potential energy  (eV) =   -1539.825967      -1538.818266
       Total energy      (eV) =   -1538.467784      -1537.459619
       Temperature       (K)  =     300.210305        300.312862
       C/S temperature   (K)  =       0.882821          0.757874
       Pressure         (GPa) =       4.124117          2.008319
       Cell parameter : a (A) =       9.207376          9.204416
       Cell parameter : b (A) =       9.207041          9.204159
       Cell parameter : c (A) =       9.208043          9.204979
       Cell angle : alpha (o) =      94.760831         94.750439
       Cell angle : beta  (o) =      94.762913         94.752586
       Cell angle : gamma (o) =      94.754765         94.744943
       Cell volume :   (A**3) =     772.036659        771.327824
  ** Time :            0.02500 ps :
     Properties:                   Instantaneous       Averaged
       Kinetic energy    (eV) =       1.348035          1.356524
       Potential energy  (eV) =   -1539.744097      -1539.003432
       Total energy      (eV) =   -1538.396062      -1537.646908
       Temperature       (K)  =     297.967168        299.843723
       C/S temperature   (K)  =       0.604902          0.727280
       Pressure         (GPa) =       4.680008          2.541001
       Cell parameter : a (A) =       9.210570          9.205647
       Cell parameter : b (A) =       9.210311          9.205389
       Cell parameter : c (A) =       9.211067          9.206197
       Cell angle : alpha (o) =      94.760434         94.752438
       Cell angle : beta  (o) =      94.761444         94.754358
       Cell angle : gamma (o) =      94.755850         94.747124
       Cell volume :   (A**3) =     772.833516        771.628963
  ** Time :            0.03000 ps :
     Properties:                   Instantaneous       Averaged
       Kinetic energy    (eV) =       1.342234          1.354143
       Potential energy  (eV) =   -1538.963706      -1538.996811
       Total energy      (eV) =   -1537.621471      -1537.642668
       Temperature       (K)  =     296.685111        299.317288
       C/S temperature   (K)  =       0.505273          0.690279
       Pressure         (GPa) =       4.945505          2.939362
       Cell parameter : a (A) =       9.213922          9.207026
       Cell parameter : b (A) =       9.213679          9.206771
       Cell parameter : c (A) =       9.214365          9.207558
       Cell angle : alpha (o) =      94.751873         94.752344
       Cell angle : beta  (o) =      94.752810         94.754100
       Cell angle : gamma (o) =      94.747066         94.747115
       Cell volume :   (A**3) =     773.706388        771.975200
  ** Time :            0.03500 ps :
     Properties:                   Instantaneous       Averaged
       Kinetic energy    (eV) =       1.350910          1.353681
       Potential energy  (eV) =   -1538.362538      -1538.906201
       Total energy      (eV) =   -1537.011629      -1537.552520
       Temperature       (K)  =     298.602651        299.215197
       C/S temperature   (K)  =       0.476374          0.659721
       Pressure         (GPa) =       4.644029          3.180025
       Cell parameter : a (A) =       9.217134          9.208470
       Cell parameter : b (A) =       9.216806          9.208205
       Cell parameter : c (A) =       9.217818          9.209024
       Cell angle : alpha (o) =      94.736591         94.750093
       Cell angle : beta  (o) =      94.739122         94.751960
       Cell angle : gamma (o) =      94.729782         94.744639
       Cell volume :   (A**3) =     774.586027        772.348175
  ** Time :            0.04000 ps :
     Properties:                   Instantaneous       Averaged
       Kinetic energy    (eV) =       1.369744          1.355689
       Potential energy  (eV) =   -1539.559283      -1538.987836
       Total energy      (eV) =   -1538.189539      -1537.632147
       Temperature       (K)  =     302.765802        299.659023
       C/S temperature   (K)  =       0.519314          0.642170
       Pressure         (GPa) =       3.721270          3.244940
       Cell parameter : a (A) =       9.219888          9.209897
       Cell parameter : b (A) =       9.219432          9.209608
       Cell parameter : c (A) =       9.220870          9.210505
       Cell angle : alpha (o) =      94.721402         94.746507
       Cell angle : beta  (o) =      94.725771         94.748686
       Cell angle : gamma (o) =      94.713612         94.740760
       Cell volume :   (A**3) =     775.349792        772.723378
  ** Time :            0.04500 ps :
     Properties:                   Instantaneous       Averaged
       Kinetic energy    (eV) =       1.360729          1.356249
       Potential energy  (eV) =   -1540.936278      -1539.204329
       Total energy      (eV) =   -1539.575549      -1537.848081
       Temperature       (K)  =     300.773085        299.782807
       C/S temperature   (K)  =       0.762336          0.655522
       Pressure         (GPa) =       2.798137          3.193095
       Cell parameter : a (A) =       9.222194          9.211263
       Cell parameter : b (A) =       9.221634          9.210944
       Cell parameter : c (A) =       9.223184          9.211913
       Cell angle : alpha (o) =      94.715753         94.743090
       Cell angle : beta  (o) =      94.720724         94.745579
       Cell angle : gamma (o) =      94.709707         94.737310
       Cell volume :   (A**3) =     775.941549        773.080952
  ** Time :            0.05000 ps :
     Properties:                   Instantaneous       Averaged
       Kinetic energy    (eV) =       1.344262          1.355050
       Potential energy  (eV) =   -1540.670006      -1539.350897
       Total energy      (eV) =   -1539.325743      -1537.995847
       Temperature       (K)  =     297.133373        299.517864
       C/S temperature   (K)  =       0.669290          0.656899
       Pressure         (GPa) =       1.860633          3.058266
       Cell parameter : a (A) =       9.224059          9.212543
       Cell parameter : b (A) =       9.223435          9.212193
       Cell parameter : c (A) =       9.224869          9.213209
       Cell angle : alpha (o) =      94.721173         94.740898
       Cell angle : beta  (o) =      94.725989         94.743620
       Cell angle : gamma (o) =      94.717417         94.735321
       Cell volume :   (A**3) =     776.369237        773.409781
  ** Time :            0.05500 ps :
     Properties:                   Instantaneous       Averaged
       Kinetic energy    (eV) =       1.351521          1.354729
       Potential energy  (eV) =   -1539.989661      -1539.408967
       Total energy      (eV) =   -1538.638140      -1538.054237
       Temperature       (K)  =     298.737855        299.446954
       C/S temperature   (K)  =       0.644543          0.655775
       Pressure         (GPa) =       0.626674          2.836375
       Cell parameter : a (A) =       9.225241          9.213697
       Cell parameter : b (A) =       9.224625          9.213323
       Cell parameter : c (A) =       9.225884          9.214361
       Cell angle : alpha (o) =      94.735031         94.740365
       Cell angle : beta  (o) =      94.739298         94.743227
       Cell angle : gamma (o) =      94.731960         94.735015
       Cell volume :   (A**3) =     776.602992        773.700073
  ** Time :            0.06000 ps :
     Properties:                   Instantaneous       Averaged
       Kinetic energy    (eV) =       1.360523          1.355212
       Potential energy  (eV) =   -1540.582752      -1539.506782
       Total energy      (eV) =   -1539.222229      -1538.151570
       Temperature       (K)  =     300.727657        299.553679
       C/S temperature   (K)  =       0.551012          0.647045
       Pressure         (GPa) =      -0.620932          2.548276
       Cell parameter : a (A) =       9.225430          9.214675
       Cell parameter : b (A) =       9.224867          9.214285
       Cell parameter : c (A) =       9.226087          9.215338
       Cell angle : alpha (o) =      94.751229         94.741270
       Cell angle : beta  (o) =      94.754573         94.744173
       Cell angle : gamma (o) =      94.746004         94.735931
       Cell volume :   (A**3) =     776.600055        773.941738
  ** Time :            0.06500 ps :
     Properties:                   Instantaneous       Averaged
       Kinetic energy    (eV) =       1.352644          1.355015
       Potential energy  (eV) =   -1540.947796      -1539.617629
       Total energy      (eV) =   -1539.595151      -1538.262615
       Temperature       (K)  =     298.986065        299.510017
       C/S temperature   (K)  =       0.488985          0.634887
       Pressure         (GPa) =      -1.327941          2.250668
       Cell parameter : a (A) =       9.224764          9.215451
       Cell parameter : b (A) =       9.224198          9.215048
       Cell parameter : c (A) =       9.225595          9.216127
       Cell angle : alpha (o) =      94.761235         94.742806
       Cell angle : beta  (o) =      94.763807         94.745683
       Cell angle : gamma (o) =      94.752623         94.737215
       Cell volume :   (A**3) =     776.414323        774.131937
  ** Time :            0.07000 ps :
     Properties:                   Instantaneous       Averaged
       Kinetic energy    (eV) =       1.351630          1.354773
       Potential energy  (eV) =   -1540.913030      -1539.710158
       Total energy      (eV) =   -1539.561400      -1538.355385
       Temperature       (K)  =     298.761980        299.456585
       C/S temperature   (K)  =       0.486524          0.624289
       Pressure         (GPa) =      -1.307958          1.997160
       Cell parameter : a (A) =       9.223703          9.216040
       Cell parameter : b (A) =       9.223098          9.215623
       Cell parameter : c (A) =       9.224691          9.216739
       Cell angle : alpha (o) =      94.760258         94.744052
       Cell angle : beta  (o) =      94.762221         94.746865
       Cell angle : gamma (o) =      94.750502         94.738164
       Cell volume :   (A**3) =     776.162047        774.276944
  ** Time :            0.07500 ps :
     Properties:                   Instantaneous       Averaged
       Kinetic energy    (eV) =       1.350110          1.354462
       Potential energy  (eV) =   -1540.744451      -1539.779111
       Total energy      (eV) =   -1539.394341      -1538.424649
       Temperature       (K)  =     298.425898        299.387873
       C/S temperature   (K)  =       0.640824          0.625392
       Pressure         (GPa) =      -0.508957          1.830509
       Cell parameter : a (A) =       9.222840          9.216494
       Cell parameter : b (A) =       9.222240          9.216064
       Cell parameter : c (A) =       9.223906          9.217217
       Cell angle : alpha (o) =      94.750394         94.744475
       Cell angle : beta  (o) =      94.752435         94.747236
       Cell angle : gamma (o) =      94.742328         94.738442
       Cell volume :   (A**3) =     775.985708        774.390862
  ** Time :            0.08000 ps :
     Properties:                   Instantaneous       Averaged
       Kinetic energy    (eV) =       1.351745          1.354292
       Potential energy  (eV) =   -1540.540198      -1539.826679
       Total energy      (eV) =   -1539.188453      -1538.472386
       Temperature       (K)  =     298.787350        299.350340
       C/S temperature   (K)  =       0.578842          0.622482
       Pressure         (GPa) =       0.604489          1.753867
       Cell parameter : a (A) =       9.222682          9.216881
       Cell parameter : b (A) =       9.222119          9.216443
       Cell parameter : c (A) =       9.223769          9.217626
       Cell angle : alpha (o) =      94.737982         94.744069
       Cell angle : beta  (o) =      94.741364         94.746869
       Cell angle : gamma (o) =      94.731706         94.738021
       Cell volume :   (A**3) =     775.992927        774.490991
  ** Time :            0.08500 ps :
     Properties:                   Instantaneous       Averaged
       Kinetic energy    (eV) =       1.350669          1.354079
       Potential energy  (eV) =   -1540.486051      -1539.865465
       Total energy      (eV) =   -1539.135382      -1538.511386
       Temperature       (K)  =     298.549573        299.303236
       C/S temperature   (K)  =       0.549324          0.618179
       Pressure         (GPa) =       1.463097          1.736355
       Cell parameter : a (A) =       9.223346          9.217261
       Cell parameter : b (A) =       9.222748          9.216813
       Cell parameter : c (A) =       9.224390          9.218024
       Cell angle : alpha (o) =      94.728987         94.743182
       Cell angle : beta  (o) =      94.733782         94.746099
       Cell angle : gamma (o) =      94.723194         94.737148
       Cell volume :   (A**3) =     776.184787        774.590626
  ** Time :            0.09000 ps :
     Properties:                   Instantaneous       Averaged
       Kinetic energy    (eV) =       1.352206          1.353975
       Potential energy  (eV) =   -1540.232934      -1539.885880
       Total energy      (eV) =   -1538.880728      -1538.531905
       Temperature       (K)  =     298.889262        299.280238
       C/S temperature   (K)  =       0.564821          0.615215
       Pressure         (GPa) =       1.931140          1.746510
       Cell parameter : a (A) =       9.224612          9.217669
       Cell parameter : b (A) =       9.223928          9.217209
       Cell parameter : c (A) =       9.225594          9.218445
       Cell angle : alpha (o) =      94.726930         94.742279
       Cell angle : beta  (o) =      94.731551         94.745291
       Cell angle : gamma (o) =      94.720947         94.736248
       Cell volume :   (A**3) =     776.500000        774.696702
  ** Time :            0.09500 ps :
     Properties:                   Instantaneous       Averaged
       Kinetic energy    (eV) =       1.364187          1.354513
       Potential energy  (eV) =   -1540.685144      -1539.927947
       Total energy      (eV) =   -1539.320957      -1538.573434
       Temperature       (K)  =     301.537452        299.399038
       C/S temperature   (K)  =       0.797722          0.624820
       Pressure         (GPa) =       1.587184          1.737407
       Cell parameter : a (A) =       9.226015          9.218109
       Cell parameter : b (A) =       9.225259          9.217632
       Cell parameter : c (A) =       9.226912          9.218890
       Cell angle : alpha (o) =      94.728555         94.741557
       Cell angle : beta  (o) =      94.731488         94.744564
       Cell angle : gamma (o) =      94.722673         94.735534
       Cell volume :   (A**3) =     776.837113        774.809356
  ** Time :            0.10000 ps :
     Properties:                   Instantaneous       Averaged
       Kinetic energy    (eV) =       1.359223          1.354748
       Potential energy  (eV) =   -1541.436456      -1540.003372
       Total energy      (eV) =   -1540.077233      -1538.648624
       Temperature       (K)  =     300.440142        299.451094
       C/S temperature   (K)  =       0.790632          0.633111
       Pressure         (GPa) =       0.479957          1.674121
       Cell parameter : a (A) =       9.226833          9.218545
       Cell parameter : b (A) =       9.226030          9.218052
       Cell parameter : c (A) =       9.227575          9.219325
       Cell angle : alpha (o) =      94.727557         94.740857
       Cell angle : beta  (o) =      94.728201         94.743746
       Cell angle : gamma (o) =      94.722824         94.734898
       Cell volume :   (A**3) =     777.031850        774.920480
  ** Time :            0.10500 ps :
     Properties:                   Instantaneous       Averaged
       Kinetic energy    (eV) =       1.349441          1.354495
       Potential energy  (eV) =   -1541.442274      -1540.071891
       Total energy      (eV) =   -1540.092833      -1538.717396
       Temperature       (K)  =     298.278031        299.395234
       C/S temperature   (K)  =       0.532177          0.628304
       Pressure         (GPa) =      -0.446447          1.573150
       Cell parameter : a (A) =       9.226794          9.218938
       Cell parameter : b (A) =       9.226062          9.218434
       Cell parameter : c (A) =       9.227377          9.219708
       Cell angle : alpha (o) =      94.723988         94.740054
       Cell angle : beta  (o) =      94.723125         94.742764
       Cell angle : gamma (o) =      94.721133         94.734243
       Cell volume :   (A**3) =     777.027350        775.020807
  ** Time :            0.11000 ps :
     Properties:                   Instantaneous       Averaged
       Kinetic energy    (eV) =       1.345660          1.354094
       Potential energy  (eV) =   -1540.933795      -1540.111069
       Total energy      (eV) =   -1539.588135      -1538.756975
       Temperature       (K)  =     297.442350        299.306466
       C/S temperature   (K)  =       0.511312          0.622987
       Pressure         (GPa) =      -0.527535          1.477864
       Cell parameter : a (A) =       9.226331          9.219274
       Cell parameter : b (A) =       9.225722          9.218765
       Cell parameter : c (A) =       9.226866          9.220033
       Cell angle : alpha (o) =      94.721152         94.739194
       Cell angle : beta  (o) =      94.721229         94.741785
       Cell angle : gamma (o) =      94.719767         94.733585
       Cell volume :   (A**3) =     776.924119        775.107322
  ** Time :            0.11500 ps :
     Properties:                   Instantaneous       Averaged
       Kinetic energy    (eV) =       1.344922          1.353695
       Potential energy  (eV) =   -1540.056815      -1540.108710
       Total energy      (eV) =   -1538.711893      -1538.755015
       Temperature       (K)  =     297.279200        299.218324
       C/S temperature   (K)  =       0.699263          0.626303
       Pressure         (GPa) =       0.015056          1.414354
       Cell parameter : a (A) =       9.226147          9.219572
       Cell parameter : b (A) =       9.225464          9.219056
       Cell parameter : c (A) =       9.226881          9.220331
       Cell angle : alpha (o) =      94.723543         94.738514
       Cell angle : beta  (o) =      94.727662         94.741171
       Cell angle : gamma (o) =      94.722038         94.733083
       Cell volume :   (A**3) =     776.874484        775.184155
  ** Time :            0.12000 ps :
     Properties:                   Instantaneous       Averaged
       Kinetic energy    (eV) =       1.360530          1.353980
       Potential energy  (eV) =   -1539.827968      -1540.097012
       Total energy      (eV) =   -1538.467438      -1538.743033
       Temperature       (K)  =     300.729080        299.281272
       C/S temperature   (K)  =       0.715544          0.630021
       Pressure         (GPa) =       0.123450          1.360524
       Cell parameter : a (A) =       9.226420          9.219858
       Cell parameter : b (A) =       9.225398          9.219320
       Cell parameter : c (A) =       9.227549          9.220632
       Cell angle : alpha (o) =      94.735690         94.738396
       Cell angle : beta  (o) =      94.745308         94.741344
       Cell angle : gamma (o) =      94.732295         94.733050
       Cell volume :   (A**3) =     776.898901        775.255603
  ** Time :            0.12500 ps :
     Properties:                   Instantaneous       Averaged
       Kinetic energy    (eV) =       1.365062          1.354423
       Potential energy  (eV) =   -1540.809813      -1540.125524
       Total energy      (eV) =   -1539.444751      -1538.771101
       Temperature       (K)  =     301.730854        299.379255
       C/S temperature   (K)  =       0.831846          0.638094
       Pressure         (GPa) =      -0.139482          1.300529
       Cell parameter : a (A) =       9.226654          9.220130
       Cell parameter : b (A) =       9.225353          9.219562
       Cell parameter : c (A) =       9.228174          9.220934
       Cell angle : alpha (o) =      94.754966         94.739059
       Cell angle : beta  (o) =      94.767572         94.742393
       Cell angle : gamma (o) =      94.748502         94.733668
       Cell volume :   (A**3) =     776.895975        775.321217
  ** Time :            0.13000 ps :
     Properties:                   Instantaneous       Averaged
       Kinetic energy    (eV) =       1.356630          1.354508
       Potential energy  (eV) =   -1541.358318      -1540.172940
       Total energy      (eV) =   -1540.001688      -1538.818432
       Temperature       (K)  =     299.867012        299.398015
       C/S temperature   (K)  =       0.840564          0.645882
       Pressure         (GPa) =      -0.120233          1.245930
       Cell parameter : a (A) =       9.226689          9.220382
       Cell parameter : b (A) =       9.225396          9.219786
       Cell parameter : c (A) =       9.228420          9.221221
       Cell angle : alpha (o) =      94.771401         94.740303
       Cell angle : beta  (o) =      94.782796         94.743947
       Cell angle : gamma (o) =      94.761798         94.734750
       Cell volume :   (A**3) =     776.867375        775.380685
  ** Time :            0.13500 ps :
     Properties:                   Instantaneous       Averaged
       Kinetic energy    (eV) =       1.350538          1.354361
       Potential energy  (eV) =   -1541.110069      -1540.207648
       Total energy      (eV) =   -1539.759531      -1538.853287
       Temperature       (K)  =     298.520554        299.365517
       C/S temperature   (K)  =       0.787699          0.651134
       Pressure         (GPa) =       0.120247          1.204241
       Cell parameter : a (A) =       9.226691          9.220616
       Cell parameter : b (A) =       9.225605          9.220002
       Cell parameter : c (A) =       9.228372          9.221486
       Cell angle : alpha (o) =      94.777733         94.741689
       Cell angle : beta  (o) =      94.785690         94.745493
       Cell angle : gamma (o) =      94.765244         94.735879
       Cell volume :   (A**3) =     776.865235        775.435668
  ** Time :            0.14000 ps :
     Properties:                   Instantaneous       Averaged
       Kinetic energy    (eV) =       1.357304          1.354466
       Potential energy  (eV) =   -1540.918495      -1540.233035
       Total energy      (eV) =   -1539.561191      -1538.878569
       Temperature       (K)  =     300.016087        299.388751
       C/S temperature   (K)  =       0.783144          0.655849
       Pressure         (GPa) =       0.373917          1.174520
       Cell parameter : a (A) =       9.226708          9.220833
       Cell parameter : b (A) =       9.225867          9.220211
       Cell parameter : c (A) =       9.228251          9.221728
       Cell angle : alpha (o) =      94.770778         94.742728
       Cell angle : beta  (o) =      94.776081         94.746585
       Cell angle : gamma (o) =      94.756315         94.736609
       Cell volume :   (A**3) =     776.910291        775.488333
  ** Time :            0.14500 ps :
     Properties:                   Instantaneous       Averaged
       Kinetic energy    (eV) =       1.357415          1.354568
       Potential energy  (eV) =   -1541.270403      -1540.268807
       Total energy      (eV) =   -1539.912988      -1538.914239
       Temperature       (K)  =     300.040597        299.411229
       C/S temperature   (K)  =       0.834969          0.662025
       Pressure         (GPa) =       0.651237          1.156341
       Cell parameter : a (A) =       9.226805          9.221039
       Cell parameter : b (A) =       9.226082          9.220414
       Cell parameter : c (A) =       9.228370          9.221957
       Cell angle : alpha (o) =      94.755858         94.743181
       Cell angle : beta  (o) =      94.760768         94.747074
       Cell angle : gamma (o) =      94.741768         94.736787
       Cell volume :   (A**3) =     777.002191        775.540535
  ** Time :            0.15000 ps :
     Properties:                   Instantaneous       Averaged
       Kinetic energy    (eV) =       1.349958          1.354414
       Potential energy  (eV) =   -1541.057235      -1540.295088
       Total energy      (eV) =   -1539.707277      -1538.940674
       Temperature       (K)  =     298.392235        299.377262
       C/S temperature   (K)  =       0.826047          0.667493
       Pressure         (GPa) =       0.786207          1.143806
       Cell parameter : a (A) =       9.227189          9.221244
       Cell parameter : b (A) =       9.226391          9.220613
       Cell parameter : c (A) =       9.228866          9.222187
       Cell angle : alpha (o) =      94.744395         94.743221
       Cell angle : beta  (o) =      94.750972         94.747204
       Cell angle : gamma (o) =      94.733123         94.736665
       Cell volume :   (A**3) =     777.139347        775.593829
  ** Time :            0.15500 ps :
     Properties:                   Instantaneous       Averaged
       Kinetic energy    (eV) =       1.352451          1.354351
       Potential energy  (eV) =   -1540.591773      -1540.304658
       Total energy      (eV) =   -1539.239322      -1538.950307
       Temperature       (K)  =     298.943269        299.363263
       C/S temperature   (K)  =       0.740869          0.669860
       Pressure         (GPa) =       0.203181          1.113314
       Cell parameter : a (A) =       9.227683          9.221452
       Cell parameter : b (A) =       9.226745          9.220811
       Cell parameter : c (A) =       9.229305          9.222417
       Cell angle : alpha (o) =      94.742849         94.743209
       Cell angle : beta  (o) =      94.752437         94.747373
       Cell angle : gamma (o) =      94.736164         94.736649
       Cell volume :   (A**3) =     777.244084        775.647063
  ** Time :            0.16000 ps :
     Properties:                   Instantaneous       Averaged
       Kinetic energy    (eV) =       1.360953          1.354557
       Potential energy  (eV) =   -1540.938926      -1540.324479
       Total energy      (eV) =   -1539.577972      -1538.969922
       Temperature       (K)  =     300.822665        299.408869
       C/S temperature   (K)  =       0.711998          0.671176
       Pressure         (GPa) =      -0.897155          1.050572
       Cell parameter : a (A) =       9.227702          9.221647
       Cell parameter : b (A) =       9.226787          9.220997
       Cell parameter : c (A) =       9.228904          9.222620
       Cell angle : alpha (o) =      94.749302         94.743400
       Cell angle : beta  (o) =      94.760723         94.747790
       Cell angle : gamma (o) =      94.747964         94.737002
       Cell volume :   (A**3) =     777.182569        775.695048
  ** Time :            0.16500 ps :
     Properties:                   Instantaneous       Averaged
       Kinetic energy    (eV) =       1.355361          1.354581
       Potential energy  (eV) =   -1541.369819      -1540.356156
       Total energy      (eV) =   -1540.014457      -1539.001575
       Temperature       (K)  =     299.586661        299.414257
       C/S temperature   (K)  =       0.798606          0.675038
       Pressure         (GPa) =      -1.614711          0.970117
       Cell parameter : a (A) =       9.226999          9.221809
       Cell parameter : b (A) =       9.226288          9.221158
       Cell parameter : c (A) =       9.227637          9.222772
       Cell angle : alpha (o) =      94.756083         94.743784
       Cell angle : beta  (o) =      94.766510         94.748357
       Cell angle : gamma (o) =      94.758520         94.737655
       Cell volume :   (A**3) =     776.945975        775.732955
  ** Time :            0.17000 ps :
     Properties:                   Instantaneous       Averaged
       Kinetic energy    (eV) =       1.345595          1.354317
       Potential energy  (eV) =   -1540.906910      -1540.372355
       Total energy      (eV) =   -1539.561315      -1539.018038
       Temperature       (K)  =     297.428015        299.355838
       C/S temperature   (K)  =       0.694439          0.675609
       Pressure         (GPa) =      -1.743721          0.890679
       Cell parameter : a (A) =       9.225798          9.221927
       Cell parameter : b (A) =       9.225279          9.221279
       Cell parameter : c (A) =       9.226132          9.222870
       Cell angle : alpha (o) =      94.757171         94.744178
       Cell angle : beta  (o) =      94.764930         94.748845
       Cell angle : gamma (o) =      94.760390         94.738323
       Cell volume :   (A**3) =     776.631498        775.759382
  ** Time :            0.17500 ps :
     Properties:                   Instantaneous       Averaged
       Kinetic energy    (eV) =       1.354356          1.354318
       Potential energy  (eV) =   -1540.391233      -1540.372894
       Total energy      (eV) =   -1539.036877      -1539.018576
       Temperature       (K)  =     299.364444        299.356084
       C/S temperature   (K)  =       0.606396          0.673631
       Pressure         (GPa) =      -1.268825          0.829296
       Cell parameter : a (A) =       9.224502          9.222000
       Cell parameter : b (A) =       9.223984          9.221356
       Cell parameter : c (A) =       9.225028          9.222932
       Cell angle : alpha (o) =      94.751486         94.744387
       Cell angle : beta  (o) =      94.756567         94.749066
       Cell angle : gamma (o) =      94.752692         94.738734
       Cell volume :   (A**3) =     776.347443        775.776184
  ** Time :            0.18000 ps :
     Properties:                   Instantaneous       Averaged
       Kinetic energy    (eV) =       1.363708          1.354579
       Potential energy  (eV) =   -1541.051646      -1540.391748
       Total energy      (eV) =   -1539.687938      -1539.037169
       Temperature       (K)  =     301.431589        299.413736
       C/S temperature   (K)  =       0.800452          0.677154
       Pressure         (GPa) =      -0.408182          0.795083
       Cell parameter : a (A) =       9.223601          9.222045
       Cell parameter : b (A) =       9.222880          9.221399
       Cell parameter : c (A) =       9.224801          9.222984
       Cell angle : alpha (o) =      94.744680         94.744395
       Cell angle : beta  (o) =      94.748875         94.749060
       Cell angle : gamma (o) =      94.741320         94.738806
       Cell volume :   (A**3) =     776.191558        775.787722
  ** Time :            0.18500 ps :
     Properties:                   Instantaneous       Averaged
       Kinetic energy    (eV) =       1.356505          1.354631
       Potential energy  (eV) =   -1541.522020      -1540.422296
       Total energy      (eV) =   -1540.165515      -1539.067665
       Temperature       (K)  =     299.839466        299.425243
       C/S temperature   (K)  =       0.890701          0.682925
       Pressure         (GPa) =       0.391640          0.784179
       Cell parameter : a (A) =       9.223366          9.222080
       Cell parameter : b (A) =       9.222473          9.221428
       Cell parameter : c (A) =       9.225301          9.223047
       Cell angle : alpha (o) =      94.742926         94.744355
       Cell angle : beta  (o) =      94.748709         94.749051
       Cell angle : gamma (o) =      94.733791         94.738670
       Cell volume :   (A**3) =     776.191274        775.798629
  ** Time :            0.19000 ps :
     Properties:                   Instantaneous       Averaged
       Kinetic energy    (eV) =       1.350229          1.354515
       Potential energy  (eV) =   -1541.246222      -1540.443978
       Total energy      (eV) =   -1539.895992      -1539.089463
       Temperature       (K)  =     298.452256        299.399638
       C/S temperature   (K)  =       0.790069          0.685745
       Pressure         (GPa) =       0.940575          0.788172
       Cell parameter : a (A) =       9.223773          9.222125
       Cell parameter : b (A) =       9.222942          9.221467
       Cell parameter : c (A) =       9.226075          9.223126
       Cell angle : alpha (o) =      94.747275         94.744432
       Cell angle : beta  (o) =      94.755269         94.749214
       Cell angle : gamma (o) =      94.733961         94.738546
       Cell volume :   (A**3) =     776.316431        775.812255
  ** Time :            0.19500 ps :
     Properties:                   Instantaneous       Averaged
       Kinetic energy    (eV) =       1.353424          1.354487
       Potential energy  (eV) =   -1540.906382      -1540.455835
       Total energy      (eV) =   -1539.552958      -1539.101348
       Temperature       (K)  =     299.158376        299.393452
       C/S temperature   (K)  =       0.713990          0.686469
       Pressure         (GPa) =       0.991728          0.793208
       Cell parameter : a (A) =       9.224564          9.222187
       Cell parameter : b (A) =       9.224013          9.221533
       Cell parameter : c (A) =       9.226722          9.223219
       Cell angle : alpha (o) =      94.754312         94.744685
       Cell angle : beta  (o) =      94.762274         94.749549
       Cell angle : gamma (o) =      94.740409         94.738594
       Cell volume :   (A**3) =     776.502270        775.829948
  ** Time :            0.20000 ps :
     Properties:                   Instantaneous       Averaged
       Kinetic energy    (eV) =       1.355904          1.354523
       Potential energy  (eV) =   -1540.958697      -1540.468406
       Total energy      (eV) =   -1539.602793      -1539.113884
       Temperature       (K)  =     299.706583        299.401280
       C/S temperature   (K)  =       0.796113          0.689210
       Pressure         (GPa) =       0.357635          0.782186
       Cell parameter : a (A) =       9.225194          9.222263
       Cell parameter : b (A) =       9.224883          9.221616
       Cell parameter : c (A) =       9.226921          9.223311
       Cell angle : alpha (o) =      94.757058         94.744995
       Cell angle : beta  (o) =      94.762722         94.749879
       Cell angle : gamma (o) =      94.745664         94.738771
       Cell volume :   (A**3) =     776.634798        775.850069
  ** Time :            0.20500 ps :
     Properties:                   Instantaneous       Averaged
       Kinetic energy    (eV) =       1.351528          1.354450
       Potential energy  (eV) =   -1540.830712      -1540.477243
       Total energy      (eV) =   -1539.479184      -1539.122793
       Temperature       (K)  =     298.739361        299.385136
       C/S temperature   (K)  =       0.726519          0.690120
       Pressure         (GPa) =      -0.512109          0.750632
       Cell parameter : a (A) =       9.225171          9.222334
       Cell parameter : b (A) =       9.224841          9.221695
       Cell parameter : c (A) =       9.226616          9.223392
       Cell angle : alpha (o) =      94.752115         94.745168
       Cell angle : beta  (o) =      94.755841         94.750024
       Cell angle : gamma (o) =      94.743758         94.738892
       Cell volume :   (A**3) =     776.620781        775.868867
  ** Time :            0.21000 ps :
     Properties:                   Instantaneous       Averaged
       Kinetic energy    (eV) =       1.356466          1.354498
       Potential energy  (eV) =   -1540.725693      -1540.483159
       Total energy      (eV) =   -1539.369228      -1539.128661
       Temperature       (K)  =     299.830716        299.395745
       C/S temperature   (K)  =       0.665179          0.689526
       Pressure         (GPa) =      -1.048382          0.707939
       Cell parameter : a (A) =       9.224503          9.222385
       Cell parameter : b (A) =       9.223942          9.221749
       Cell parameter : c (A) =       9.226039          9.223455
       Cell angle : alpha (o) =      94.743555         94.745130
       Cell angle : beta  (o) =      94.746471         94.749939
       Cell angle : gamma (o) =      94.736118         94.738826
       Cell volume :   (A**3) =     776.471892        775.883225
  ** Time :            0.21500 ps :
     Properties:                   Instantaneous       Averaged
       Kinetic energy    (eV) =       1.359494          1.354614
       Potential energy  (eV) =   -1541.182769      -1540.499429
       Total energy      (eV) =   -1539.823275      -1539.144815
       Temperature       (K)  =     300.500157        299.421429
       C/S temperature   (K)  =       0.809254          0.692311
       Pressure         (GPa) =      -1.075188          0.666649
       Cell parameter : a (A) =       9.223670          9.222415
       Cell parameter : b (A) =       9.222861          9.221775
       Cell parameter : c (A) =       9.225326          9.223498
       Cell angle : alpha (o) =      94.738007         94.744964
       Cell angle : beta  (o) =      94.740730         94.749725
       Cell angle : gamma (o) =      94.730142         94.738624
       Cell volume :   (A**3) =     776.272181        775.892270
  ** Time :            0.22000 ps :
     Properties:                   Instantaneous       Averaged
       Kinetic energy    (eV) =       1.354556          1.354613
       Potential energy  (eV) =   -1541.283187      -1540.517241
       Total energy      (eV) =   -1539.928631      -1539.162629
       Temperature       (K)  =     299.408616        299.421137
       C/S temperature   (K)  =       0.891424          0.696836
       Pressure         (GPa) =      -0.813831          0.633148
       Cell parameter : a (A) =       9.223130          9.222431
       Cell parameter : b (A) =       9.222204          9.221784
       Cell parameter : c (A) =       9.224522          9.223521
       Cell angle : alpha (o) =      94.738696         94.744822
       Cell angle : beta  (o) =      94.742124         94.749552
       Cell angle : gamma (o) =      94.732991         94.738496
       Cell volume :   (A**3) =     776.097631        775.896938
  ** Time :            0.22500 ps :
     Properties:                   Instantaneous       Averaged
       Kinetic energy    (eV) =       1.355084          1.354623
       Potential energy  (eV) =   -1541.141122      -1540.531105
       Total energy      (eV) =   -1539.786038      -1539.176482
       Temperature       (K)  =     299.525260        299.423451
       C/S temperature   (K)  =       0.851035          0.700263
       Pressure         (GPa) =      -0.501219          0.608035
       Cell parameter : a (A) =       9.222920          9.222442
       Cell parameter : b (A) =       9.222073          9.221791
       Cell parameter : c (A) =       9.223777          9.223527
       Cell angle : alpha (o) =      94.743793         94.744799
       Cell angle : beta  (o) =      94.749241         94.749546
       Cell angle : gamma (o) =      94.743602         94.738610
       Cell volume :   (A**3) =     775.978096        775.898741
  ** Time :            0.23000 ps :
     Properties:                   Instantaneous       Averaged
       Kinetic energy    (eV) =       1.353623          1.354601
       Potential energy  (eV) =   -1541.076294      -1540.542957
       Total energy      (eV) =   -1539.722671      -1539.188356
       Temperature       (K)  =     299.202480        299.418648
       C/S temperature   (K)  =       0.796395          0.702353
       Pressure         (GPa) =      -0.293414          0.588492
       Cell parameter : a (A) =       9.222812          9.222450
       Cell parameter : b (A) =       9.222132          9.221798
       Cell parameter : c (A) =       9.223295          9.223522
       Cell angle : alpha (o) =      94.748449         94.744878
       Cell angle : beta  (o) =      94.756203         94.749690
       Cell angle : gamma (o) =      94.752537         94.738912
       Cell volume :   (A**3) =     775.908007        775.898943
  ** Time :            0.23500 ps :
     Properties:                   Instantaneous       Averaged
       Kinetic energy    (eV) =       1.352616          1.354559
       Potential energy  (eV) =   -1540.825950      -1540.548978
       Total energy      (eV) =   -1539.473334      -1539.194419
       Temperature       (K)  =     298.979921        299.409313
       C/S temperature   (K)  =       0.793968          0.704302
       Pressure         (GPa) =      -0.307671          0.569462
       Cell parameter : a (A) =       9.222587          9.222453
       Cell parameter : b (A) =       9.221866          9.221800
       Cell parameter : c (A) =       9.223176          9.223515
       Cell angle : alpha (o) =      94.748695         94.744959
       Cell angle : beta  (o) =      94.757226         94.749851
       Cell angle : gamma (o) =      94.750816         94.739166
       Cell volume :   (A**3) =     775.857284        775.898056
  ** Time :            0.24000 ps :
     Properties:                   Instantaneous       Averaged
       Kinetic energy    (eV) =       1.356216          1.354594
       Potential energy  (eV) =   -1540.721576      -1540.552574
       Total energy      (eV) =   -1539.365361      -1539.197981
       Temperature       (K)  =     299.775466        299.416941
       C/S temperature   (K)  =       0.850722          0.707352
       Pressure         (GPa) =      -0.449752          0.548279
       Cell parameter : a (A) =       9.222098          9.222446
       Cell parameter : b (A) =       9.221026          9.221783
       Cell parameter : c (A) =       9.223301          9.223510
       Cell angle : alpha (o) =      94.743370         94.744926
       Cell angle : beta  (o) =      94.751060         94.749876
       Cell angle : gamma (o) =      94.736758         94.739116
       Cell volume :   (A**3) =     775.787541        775.895754
  ** Time :            0.24500 ps :
     Properties:                   Instantaneous       Averaged
       Kinetic energy    (eV) =       1.358085          1.354665
       Potential energy  (eV) =   -1540.870838      -1540.559069
       Total energy      (eV) =   -1539.512753      -1539.204405
       Temperature       (K)  =     300.188656        299.432690
       C/S temperature   (K)  =       0.888684          0.711053
       Pressure         (GPa) =      -0.348383          0.530033
       Cell parameter : a (A) =       9.221435          9.222425
       Cell parameter : b (A) =       9.220010          9.221747
       Cell parameter : c (A) =       9.223502          9.223510
       Cell angle : alpha (o) =      94.734557         94.744715
       Cell angle : beta  (o) =      94.741611         94.749707
       Cell angle : gamma (o) =      94.716789         94.738660
       Cell volume :   (A**3) =     775.710321        775.891970
  ** Time :            0.25000 ps :
     Properties:                   Instantaneous       Averaged
       Kinetic energy    (eV) =       1.358056          1.354733
       Potential energy  (eV) =   -1541.106336      -1540.570015
       Total energy      (eV) =   -1539.748281      -1539.215282
       Temperature       (K)  =     300.182239        299.447681
       C/S temperature   (K)  =       0.857428          0.713980
       Pressure         (GPa) =      -0.182036          0.515822
       Cell parameter : a (A) =       9.220906          9.222395
       Cell parameter : b (A) =       9.219384          9.221700
       Cell parameter : c (A) =       9.223699          9.223514
       Cell angle : alpha (o) =      94.727825         94.744377
       Cell angle : beta  (o) =      94.734939         94.749412
       Cell angle : gamma (o) =      94.701751         94.737922
       Cell volume :   (A**3) =     775.664629        775.887423
  ** Time :            0.25500 ps :
     Properties:                   Instantaneous       Averaged
       Kinetic energy    (eV) =       1.355925          1.354756
       Potential energy  (eV) =   -1541.246894      -1540.583287
       Total energy      (eV) =   -1539.890969      -1539.228531
       Temperature       (K)  =     299.711317        299.452851
       C/S temperature   (K)  =       0.830516          0.716265
       Pressure         (GPa) =      -0.285189          0.500141
       Cell parameter : a (A) =       9.220602          9.222360
       Cell parameter : b (A) =       9.219128          9.221650
       Cell parameter : c (A) =       9.223746          9.223518
       Cell angle : alpha (o) =      94.727356         94.744043
       Cell angle : beta  (o) =      94.734969         94.749129
       Cell angle : gamma (o) =      94.698409         94.737147
       Cell volume :   (A**3) =     775.626107        775.882299
  ** Time :            0.26000 ps :
     Properties:                   Instantaneous       Averaged
       Kinetic energy    (eV) =       1.355730          1.354775
       Potential energy  (eV) =   -1541.223929      -1540.595607
       Total energy      (eV) =   -1539.868199      -1539.240832
       Temperature       (K)  =     299.668146        299.456991
       C/S temperature   (K)  =       0.914087          0.720070
       Pressure         (GPa) =      -0.466726          0.481592
       Cell parameter : a (A) =       9.220425          9.222322
       Cell parameter : b (A) =       9.218915          9.221597
       Cell parameter : c (A) =       9.223541          9.223519
       Cell angle : alpha (o) =      94.731611         94.743804
       Cell angle : beta  (o) =      94.740380         94.748960
       Cell angle : gamma (o) =      94.704402         94.736517
       Cell volume :   (A**3) =     775.556761        775.876039
  ** Time :            0.26500 ps :
     Properties:                   Instantaneous       Averaged
       Kinetic energy    (eV) =       1.353880          1.354758
       Potential energy  (eV) =   -1541.084874      -1540.604838
       Total energy      (eV) =   -1539.730994      -1539.250080
       Temperature       (K)  =     299.259254        299.453260
       C/S temperature   (K)  =       0.914362          0.723736
       Pressure         (GPa) =      -0.527391          0.462610
       Cell parameter : a (A) =       9.220239          9.222283
       Cell parameter : b (A) =       9.218610          9.221541
       Cell parameter : c (A) =       9.223195          9.223513
       Cell angle : alpha (o) =      94.735733         94.743652
       Cell angle : beta  (o) =      94.746326         94.748911
       Cell angle : gamma (o) =      94.711433         94.736044
       Cell volume :   (A**3) =     775.465361        775.868290
  ** Time :            0.27000 ps :
     Properties:                   Instantaneous       Averaged
       Kinetic energy    (eV) =       1.355152          1.354765
       Potential energy  (eV) =   -1540.909464      -1540.610480
       Total energy      (eV) =   -1539.554312      -1539.255714
       Temperature       (K)  =     299.540270        299.454871
       C/S temperature   (K)  =       0.784860          0.724868
       Pressure         (GPa) =      -0.616347          0.442689
       Cell parameter : a (A) =       9.219944          9.222240
       Cell parameter : b (A) =       9.218225          9.221479
       Cell parameter : c (A) =       9.222748          9.223499
       Cell angle : alpha (o) =      94.736425         94.743518
       Cell angle : beta  (o) =      94.748774         94.748908
       Cell angle : gamma (o) =      94.714357         94.735642
       Cell volume :   (A**3) =     775.363115        775.858935
  ** Time :            0.27500 ps :
     Properties:                   Instantaneous       Averaged
       Kinetic energy    (eV) =       1.357082          1.354807
       Potential energy  (eV) =   -1541.076356      -1540.618950
       Total energy      (eV) =   -1539.719274      -1539.264143
       Temperature       (K)  =     299.966888        299.464181
       C/S temperature   (K)  =       0.785383          0.725968
       Pressure         (GPa) =      -0.621096          0.423413
       Cell parameter : a (A) =       9.219601          9.222192
       Cell parameter : b (A) =       9.217836          9.221413
       Cell parameter : c (A) =       9.222059          9.223472
       Cell angle : alpha (o) =      94.734611         94.743356
       Cell angle : beta  (o) =      94.747232         94.748878
       Cell angle : gamma (o) =      94.716061         94.735286
       Cell volume :   (A**3) =     775.245749        775.847786
  ** Time :            0.28000 ps :
     Properties:                   Instantaneous       Averaged
       Kinetic energy    (eV) =       1.354154          1.354796
       Potential energy  (eV) =   -1541.071847      -1540.627037
       Total energy      (eV) =   -1539.717693      -1539.272242
       Temperature       (K)  =     299.319716        299.461601
       C/S temperature   (K)  =       0.921445          0.729458
       Pressure         (GPa) =      -0.136297          0.413460
       Cell parameter : a (A) =       9.219505          9.222144
       Cell parameter : b (A) =       9.217746          9.221347
       Cell parameter : c (A) =       9.221346          9.223434
       Cell angle : alpha (o) =      94.733859         94.743186
       Cell angle : beta  (o) =      94.744760         94.748804
       Cell angle : gamma (o) =      94.720918         94.735030
       Cell volume :   (A**3) =     775.168144        775.835650
  ** Time :            0.28500 ps :
     Properties:                   Instantaneous       Averaged
       Kinetic energy    (eV) =       1.354334          1.354788
       Potential energy  (eV) =   -1540.796877      -1540.630017
       Total energy      (eV) =   -1539.442543      -1539.275230
       Temperature       (K)  =     299.359584        299.459811
       C/S temperature   (K)  =       0.909279          0.732613
       Pressure         (GPa) =       0.598064          0.416677
       Cell parameter : a (A) =       9.219910          9.222105
       Cell parameter : b (A) =       9.218189          9.221292
       Cell parameter : c (A) =       9.221156          9.223394
       Cell angle : alpha (o) =      94.736662         94.743072
       Cell angle : beta  (o) =      94.745303         94.748743
       Cell angle : gamma (o) =      94.728351         94.734913
       Cell volume :   (A**3) =     775.210263        775.824678
  ** Time :            0.29000 ps :
     Properties:                   Instantaneous       Averaged
       Kinetic energy    (eV) =       1.358475          1.354851
       Potential energy  (eV) =   -1540.878145      -1540.634295
       Total energy      (eV) =   -1539.519670      -1539.279444
       Temperature       (K)  =     300.274985        299.473866
       C/S temperature   (K)  =       0.818034          0.734086
       Pressure         (GPa) =       0.863595          0.424307
       Cell parameter : a (A) =       9.220631          9.222079
       Cell parameter : b (A) =       9.218906          9.221251
       Cell parameter : c (A) =       9.221671          9.223365
       Cell angle : alpha (o) =      94.742365         94.743060
       Cell angle : beta  (o) =      94.750650         94.748776
       Cell angle : gamma (o) =      94.734451         94.734905
       Cell volume :   (A**3) =     775.353260        775.816550
  ** Time :            0.29500 ps :
     Properties:                   Instantaneous       Averaged
       Kinetic energy    (eV) =       1.359887          1.354936
       Potential energy  (eV) =   -1541.281619      -1540.645267
       Total energy      (eV) =   -1539.921733      -1539.290330
       Temperature       (K)  =     300.586887        299.492731
       C/S temperature   (K)  =       0.847544          0.736009
       Pressure         (GPa) =       0.499561          0.425512
       Cell parameter : a (A) =       9.221130          9.222063
       Cell parameter : b (A) =       9.219345          9.221219
       Cell parameter : c (A) =       9.222485          9.223350
       Cell angle : alpha (o) =      94.747355         94.743133
       Cell angle : beta  (o) =      94.757912         94.748930
       Cell angle : gamma (o) =      94.735543         94.734915
       Cell volume :   (A**3) =     775.484137        775.810916
  ** Time :            0.30000 ps :
     Properties:                   Instantaneous       Averaged
       Kinetic energy    (eV) =       1.354586          1.354931
       Potential energy  (eV) =   -1541.453418      -1540.658736
       Total energy      (eV) =   -1540.098832      -1539.303805
       Temperature       (K)  =     299.415299        299.491440
       C/S temperature   (K)  =       0.933153          0.739295
       Pressure         (GPa) =      -0.026915          0.417948
       Cell parameter : a (A) =       9.221081          9.222047
       Cell parameter : b (A) =       9.219298          9.221187
       Cell parameter : c (A) =       9.223080          9.223345
       Cell angle : alpha (o) =      94.748048         94.743215
       Cell angle : beta  (o) =      94.761882         94.749146
       Cell angle : gamma (o) =      94.730293         94.734838
       Cell volume :   (A**3) =     775.526776        775.806180
  ** Time :            0.30500 ps :
     Properties:                   Instantaneous       Averaged
       Kinetic energy    (eV) =       1.348759          1.354829
       Potential energy  (eV) =   -1540.917807      -1540.662983
       Total energy      (eV) =   -1539.569049      -1539.308154
       Temperature       (K)  =     298.127174        299.469075
       C/S temperature   (K)  =       0.878980          0.741585
       Pressure         (GPa) =      -0.431460          0.404046
       Cell parameter : a (A) =       9.220613          9.222023
       Cell parameter : b (A) =       9.218969          9.221150
       Cell parameter : c (A) =       9.223134          9.223342
       Cell angle : alpha (o) =      94.743573         94.743220
       Cell angle : beta  (o) =      94.759145         94.749310
       Cell angle : gamma (o) =      94.721222         94.734615
       Cell volume :   (A**3) =     775.484435        775.800906
  ** Time :            0.31000 ps :
     Properties:                   Instantaneous       Averaged
       Kinetic energy    (eV) =       1.355589          1.354842
       Potential energy  (eV) =   -1540.527511      -1540.660798
       Total energy      (eV) =   -1539.171923      -1539.305956
       Temperature       (K)  =     299.636920        299.471782
       C/S temperature   (K)  =       0.772035          0.742076
       Pressure         (GPa) =      -0.852675          0.383835
       Cell parameter : a (A) =       9.220026          9.221991
       Cell parameter : b (A) =       9.218535          9.221108
       Cell parameter : c (A) =       9.222478          9.223328
       Cell angle : alpha (o) =      94.737363         94.743126
       Cell angle : beta  (o) =      94.750847         94.749335
       Cell angle : gamma (o) =      94.714341         94.734288
       Cell volume :   (A**3) =     775.369765        775.793952
  ** Time :            0.31500 ps :
     Properties:                   Instantaneous       Averaged
       Kinetic energy    (eV) =       1.360712          1.354935
       Potential energy  (eV) =   -1540.911463      -1540.664777
       Total energy      (eV) =   -1539.550751      -1539.309842
       Temperature       (K)  =     300.769425        299.492380
       C/S temperature   (K)  =       0.804258          0.743063
       Pressure         (GPa) =      -1.175214          0.359180
       Cell parameter : a (A) =       9.219378          9.221950
       Cell parameter : b (A) =       9.217960          9.221058
       Cell parameter : c (A) =       9.221311          9.223296
       Cell angle : alpha (o) =      94.734688         94.742992
       Cell angle : beta  (o) =      94.743611         94.749244
       Cell angle : gamma (o) =      94.713778         94.733963
       Cell volume :   (A**3) =     775.181675        775.784233
  ** Time :            0.32000 ps :
     Properties:                   Instantaneous       Averaged
       Kinetic energy    (eV) =       1.358121          1.354985
       Potential energy  (eV) =   -1541.325334      -1540.675098
       Total energy      (eV) =   -1539.967214      -1539.320113
       Temperature       (K)  =     300.196609        299.503383
       C/S temperature   (K)  =       0.900374          0.745521
       Pressure         (GPa) =      -1.086340          0.336690
       Cell parameter : a (A) =       9.218676          9.221898
       Cell parameter : b (A) =       9.217264          9.220999
       Cell parameter : c (A) =       9.220255          9.223248
       Cell angle : alpha (o) =      94.736666         94.742893
       Cell angle : beta  (o) =      94.742827         94.749144
       Cell angle : gamma (o) =      94.717194         94.733701
       Cell volume :   (A**3) =     774.969756        775.771507
  ** Time :            0.32500 ps :
     Properties:                   Instantaneous       Averaged
       Kinetic energy    (eV) =       1.352700          1.354949
       Potential energy  (eV) =   -1541.220016      -1540.683481
       Total energy      (eV) =   -1539.867317      -1539.328532
       Temperature       (K)  =     298.998317        299.495613
       C/S temperature   (K)  =       0.902711          0.747939
       Pressure         (GPa) =      -0.662541          0.321387
       Cell parameter : a (A) =       9.218118          9.221840
       Cell parameter : b (A) =       9.216673          9.220932
       Cell parameter : c (A) =       9.219661          9.223193
       Cell angle : alpha (o) =      94.740525         94.742857
       Cell angle : beta  (o) =      94.747155         94.749113
       Cell angle : gamma (o) =      94.721597         94.733514
       Cell volume :   (A**3) =     774.807756        775.756680
  ** Time :            0.33000 ps :
     Properties:                   Instantaneous       Averaged
       Kinetic energy    (eV) =       1.354094          1.354937
       Potential energy  (eV) =   -1540.898748      -1540.686743
       Total energy      (eV) =   -1539.544654      -1539.331806
       Temperature       (K)  =     299.306557        299.492749
       C/S temperature   (K)  =       0.857233          0.749595
       Pressure         (GPa) =      -0.307508          0.311893
       Cell parameter : a (A) =       9.217832          9.221780
       Cell parameter : b (A) =       9.216405          9.220864
       Cell parameter : c (A) =       9.219386          9.223136
       Cell angle : alpha (o) =      94.742602         94.742853
       Cell angle : beta  (o) =      94.751909         94.749156
       Cell angle : gamma (o) =      94.726290         94.733405
       Cell volume :   (A**3) =     774.723931        775.741032
  ** Time :            0.33500 ps :
     Properties:                   Instantaneous       Averaged
       Kinetic energy    (eV) =       1.356864          1.354965
       Potential energy  (eV) =   -1540.924842      -1540.690297
       Total energy      (eV) =   -1539.567978      -1539.335331
       Temperature       (K)  =     299.918872        299.499109
       C/S temperature   (K)  =       0.826440          0.750742
       Pressure         (GPa) =      -0.271135          0.303210
       Cell parameter : a (A) =       9.217633          9.221718
       Cell parameter : b (A) =       9.216417          9.220797
       Cell parameter : c (A) =       9.219001          9.223074
       Cell angle : alpha (o) =      94.739889         94.742809
       Cell angle : beta  (o) =      94.752238         94.749202
       Cell angle : gamma (o) =      94.729969         94.733354
       Cell volume :   (A**3) =     774.674202        775.725109
  ** Time :            0.34000 ps :
     Properties:                   Instantaneous       Averaged
       Kinetic energy    (eV) =       1.357929          1.355009
       Potential energy  (eV) =   -1541.081523      -1540.696050
       Total energy      (eV) =   -1539.723593      -1539.341041
       Temperature       (K)  =     300.154310        299.508744
       C/S temperature   (K)  =       0.889798          0.752787
       Pressure         (GPa) =      -0.153783          0.296507
       Cell parameter : a (A) =       9.217413          9.221654
       Cell parameter : b (A) =       9.216587          9.220735
       Cell parameter : c (A) =       9.218384          9.223005
       Cell angle : alpha (o) =      94.733253         94.742668
       Cell angle : beta  (o) =      94.747167         94.749172
       Cell angle : gamma (o) =      94.731247         94.733323
       Cell volume :   (A**3) =     774.631049        775.709020
  ** Time :            0.34500 ps :
     Properties:                   Instantaneous       Averaged
       Kinetic energy    (eV) =       1.357146          1.355040
       Potential energy  (eV) =   -1541.233754      -1540.703843
       Total energy      (eV) =   -1539.876608      -1539.348803
       Temperature       (K)  =     299.981126        299.515590
       C/S temperature   (K)  =       0.956630          0.755741
       Pressure         (GPa) =       0.213488          0.295302
       Cell parameter : a (A) =       9.217422          9.221593
       Cell parameter : b (A) =       9.216936          9.220680
       Cell parameter : c (A) =       9.217869          9.222930
       Cell angle : alpha (o) =      94.727610         94.742450
       Cell angle : beta  (o) =      94.740230         94.749042
       Cell angle : gamma (o) =      94.730889         94.733287
       Cell volume :   (A**3) =     774.633717        775.693436
  ** Time :            0.35000 ps :
     Properties:                   Instantaneous       Averaged
       Kinetic energy    (eV) =       1.353919          1.355024
       Potential energy  (eV) =   -1541.114547      -1540.709710
       Total energy      (eV) =   -1539.760627      -1539.354686
       Temperature       (K)  =     299.267906        299.512052
       C/S temperature   (K)  =       0.914136          0.758004
       Pressure         (GPa) =       0.505805          0.298284
       Cell parameter : a (A) =       9.217770          9.221538
       Cell parameter : b (A) =       9.217398          9.220633
       Cell parameter : c (A) =       9.217797          9.222857
       Cell angle : alpha (o) =      94.726663         94.742224
       Cell angle : beta  (o) =      94.736159         94.748858
       Cell angle : gamma (o) =      94.730515         94.733248
       Cell volume :   (A**3) =     774.702385        775.679278
  ** Time :            0.35500 ps :
     Properties:                   Instantaneous       Averaged
       Kinetic energy    (eV) =       1.355104          1.355025
       Potential energy  (eV) =   -1540.942003      -1540.712982
       Total energy      (eV) =   -1539.586899      -1539.357957
       Temperature       (K)  =     299.529849        299.512303
       C/S temperature   (K)  =       0.865534          0.759519
       Pressure         (GPa) =       0.424259          0.300024
       Cell parameter : a (A) =       9.218185          9.221491
       Cell parameter : b (A) =       9.217735          9.220593
       Cell parameter : c (A) =       9.218169          9.222791
       Cell angle : alpha (o) =      94.729850         94.742050
       Cell angle : beta  (o) =      94.736622         94.748686
[...]
       C/S temperature   (K)  =       0.443683          0.560962
       Pressure         (GPa) =      -1.239658          0.001155
       Cell parameter : a (A) =       9.460012          9.183336
       Cell parameter : b (A) =       8.912032          9.186823
       Cell parameter : c (A) =       9.393227          9.292858
       Cell angle : alpha (o) =      95.232123         94.858162
       Cell angle : beta  (o) =      93.302875         94.831483
       Cell angle : gamma (o) =      95.660849         95.454599
       Cell volume :   (A**3) =     783.003206        772.574416
  ** Time :            0.91000 ps :
     Properties:                   Instantaneous       Averaged
       Kinetic energy    (eV) =       1.328120          1.359915
       Potential energy  (eV) =   -1528.878784      -1533.965040
       Total energy      (eV) =   -1527.550664      -1532.605125
       Temperature       (K)  =     293.565189        300.593206
       C/S temperature   (K)  =       0.488656          0.560565
       Pressure         (GPa) =      -1.259608         -0.005775
       Cell parameter : a (A) =       9.634670          9.185816
       Cell parameter : b (A) =       8.866376          9.185062
       Cell parameter : c (A) =       9.307583          9.292939
       Cell angle : alpha (o) =      94.670493         94.857131
       Cell angle : beta  (o) =      93.762927         94.825612
       Cell angle : gamma (o) =      96.676512         95.461313
       Cell volume :   (A**3) =     784.814261        772.641668
  ** Time :            0.91500 ps :
     Properties:                   Instantaneous       Averaged
       Kinetic energy    (eV) =       1.291968          1.359544
       Potential energy  (eV) =   -1531.122639      -1533.949508
       Total energy      (eV) =   -1529.830672      -1532.589964
       Temperature       (K)  =     285.574208        300.511135
       C/S temperature   (K)  =       0.509244          0.560285
       Pressure         (GPa) =      -0.527254         -0.008694
       Cell parameter : a (A) =       9.649905          9.188352
       Cell parameter : b (A) =       8.834600          9.183147
       Cell parameter : c (A) =       9.246781          9.292687
       Cell angle : alpha (o) =      94.516259         94.855268
       Cell angle : beta  (o) =      94.876096         94.825888
       Cell angle : gamma (o) =      97.478346         95.472335
       Cell volume :   (A**3) =     775.557805        772.657604
  ** Time :            0.92000 ps :
     Properties:                   Instantaneous       Averaged
       Kinetic energy    (eV) =       1.310472          1.359277
       Potential energy  (eV) =   -1535.538263      -1533.958143
       Total energy      (eV) =   -1534.227791      -1532.598865
       Temperature       (K)  =     289.664426        300.452186
       C/S temperature   (K)  =       0.612668          0.560569
       Pressure         (GPa) =       0.646678         -0.005286
       Cell parameter : a (A) =       9.507231          9.190085
       Cell parameter : b (A) =       8.818985          9.181168
       Cell parameter : c (A) =       9.259034          9.292504
       Cell angle : alpha (o) =      94.594456         94.853850
       Cell angle : beta  (o) =      96.103894         94.832834
       Cell angle : gamma (o) =      97.405715         95.482842
       Cell volume :   (A**3) =     762.003361        772.599700
  ** Time :            0.92500 ps :
     Properties:                   Instantaneous       Averaged
       Kinetic energy    (eV) =       1.403119          1.359514
       Potential energy  (eV) =   -1538.126884      -1533.980676
       Total energy      (eV) =   -1536.723765      -1532.621162
       Temperature       (K)  =     310.143013        300.504568
       C/S temperature   (K)  =       0.551099          0.560518
       Pressure         (GPa) =       1.670440          0.003718
       Cell parameter : a (A) =       9.283235          9.190589
       Cell parameter : b (A) =       8.859543          9.179430
       Cell parameter : c (A) =       9.335196          9.292735
       Cell angle : alpha (o) =      94.554344         94.852231
       Cell angle : beta  (o) =      96.793174         94.843430
       Cell angle : gamma (o) =      96.457617         95.488112
       Cell volume :   (A**3) =     754.196655        772.500224
  ** Time :            0.93000 ps :
     Properties:                   Instantaneous       Averaged
       Kinetic energy    (eV) =       1.416205          1.359819
       Potential energy  (eV) =   -1537.451780      -1533.999338
       Total energy      (eV) =   -1536.035575      -1532.639519
       Temperature       (K)  =     313.035329        300.571938
       C/S temperature   (K)  =       0.505625          0.560223
       Pressure         (GPa) =       1.118580          0.009686
       Cell parameter : a (A) =       9.084489          9.190018
       Cell parameter : b (A) =       9.011588          9.178527
       Cell parameter : c (A) =       9.416113          9.293398
       Cell angle : alpha (o) =      94.132869         94.848364
       Cell angle : beta  (o) =      96.612595         94.852942
       Cell angle : gamma (o) =      95.452118         95.487918
       Cell volume :   (A**3) =     759.573445        772.430725
  ** Time :            0.93500 ps :
     Properties:                   Instantaneous       Averaged
       Kinetic energy    (eV) =       1.391260          1.359987
       Potential energy  (eV) =   -1534.166982      -1534.000235
       Total energy      (eV) =   -1532.775721      -1532.640248
       Temperature       (K)  =     307.521715        300.609103
       C/S temperature   (K)  =       0.461794          0.559697
       Pressure         (GPa) =      -0.506687          0.006745
       Cell parameter : a (A) =       8.960323          9.188790
       Cell parameter : b (A) =       9.262775          9.178978
       Cell parameter : c (A) =       9.437389          9.294168
       Cell angle : alpha (o) =      93.554491         94.841445
       Cell angle : beta  (o) =      95.818625         94.858106
       Cell angle : gamma (o) =      95.224377         95.486509
       Cell volume :   (A**3) =     773.998238        772.439108
  ** Time :            0.94000 ps :
     Properties:                   Instantaneous       Averaged
       Kinetic energy    (eV) =       1.364176          1.360009
       Potential energy  (eV) =   -1530.269033      -1533.980388
       Total energy      (eV) =   -1528.904857      -1532.620379
       Temperature       (K)  =     301.535010        300.614028
       C/S temperature   (K)  =       0.442264          0.559072
       Pressure         (GPa) =      -1.407867         -0.000871
       Cell parameter : a (A) =       8.891840          9.187210
       Cell parameter : b (A) =       9.514151          9.180761
       Cell parameter : c (A) =       9.381604          9.294633
       Cell angle : alpha (o) =      93.394566         94.833749
       Cell angle : beta  (o) =      94.988273         94.858798
       Cell angle : gamma (o) =      95.885236         95.488630
       Cell volume :   (A**3) =     784.633653        772.503972
  ** Time :            0.94500 ps :
     Properties:                   Instantaneous       Averaged
       Kinetic energy    (eV) =       1.317739          1.359786
       Potential energy  (eV) =   -1529.244248      -1533.955329
       Total energy      (eV) =   -1527.926509      -1532.595543
       Temperature       (K)  =     291.270647        300.564592
       C/S temperature   (K)  =       0.498773          0.558753
       Pressure         (GPa) =      -1.162873         -0.007020
       Cell parameter : a (A) =       8.848671          9.185419
       Cell parameter : b (A) =       9.654861          9.183269
       Cell parameter : c (A) =       9.293157          9.294625
       Cell angle : alpha (o) =      93.992325         94.829297
       Cell angle : beta  (o) =      94.513050         94.856969
       Cell angle : gamma (o) =      96.920254         95.496204
       Cell volume :   (A**3) =     783.197691        772.560553
  ** Time :            0.95000 ps :
     Properties:                   Instantaneous       Averaged
       Kinetic energy    (eV) =       1.290633          1.359422
       Potential energy  (eV) =   -1532.306931      -1533.946653
       Total energy      (eV) =   -1531.016298      -1532.587231
       Temperature       (K)  =     285.279146        300.484142
       C/S temperature   (K)  =       0.504311          0.558466
       Pressure         (GPa) =      -0.220399         -0.008248
       Cell parameter : a (A) =       8.817217          9.183481
       Cell parameter : b (A) =       9.629271          9.185616
       Cell parameter : c (A) =       9.242807          9.294353
       Cell angle : alpha (o) =      95.158892         94.831031
       Cell angle : beta  (o) =      94.433780         94.854742
       Cell angle : gamma (o) =      97.557593         95.507054
       Cell volume :   (A**3) =     771.613398        772.555568
  ** Time :            0.95500 ps :
     Properties:                   Instantaneous       Averaged
       Kinetic energy    (eV) =       1.323989          1.359236
       Potential energy  (eV) =   -1536.578890      -1533.960434
       Total energy      (eV) =   -1535.254902      -1532.601198
       Temperature       (K)  =     292.652077        300.443137
       C/S temperature   (K)  =       0.615270          0.558764
       Pressure         (GPa) =       1.024119         -0.002986
       Cell parameter : a (A) =       8.810384          9.181528
       Cell parameter : b (A) =       9.459788          9.187052
       Cell parameter : c (A) =       9.270436          9.294227
       Cell angle : alpha (o) =      96.304199         94.838744
       Cell angle : beta  (o) =      94.523065         94.853005
       Cell angle : gamma (o) =      97.247534         95.516166
       Cell volume :   (A**3) =     758.455256        772.481744
  ** Time :            0.96000 ps :
     Properties:                   Instantaneous       Averaged
       Kinetic energy    (eV) =       1.425451          1.359581
       Potential energy  (eV) =   -1538.335092      -1533.983219
       Total energy      (eV) =   -1536.909641      -1532.623638
       Temperature       (K)  =     315.079071        300.519365
       C/S temperature   (K)  =       0.536519          0.558648
       Pressure         (GPa) =       1.717193          0.005956
       Cell parameter : a (A) =       8.876847          9.179941
       Cell parameter : b (A) =       9.236588          9.187310
       Cell parameter : c (A) =       9.354091          9.294539
       Cell angle : alpha (o) =      96.813574         94.849030
       Cell angle : beta  (o) =      94.418715         94.850743
       Cell angle : gamma (o) =      96.199812         95.519727
       Cell volume :   (A**3) =     753.944611        772.385197
  ** Time :            0.96500 ps :
     Properties:                   Instantaneous       Averaged
       Kinetic energy    (eV) =       1.407589          1.359830
       Potential energy  (eV) =   -1536.915276      -1533.998411
       Total energy      (eV) =   -1535.507687      -1532.638581
       Temperature       (K)  =     311.131042        300.574348
       C/S temperature   (K)  =       0.501585          0.558352
       Pressure         (GPa) =       0.677123          0.009364
       Cell parameter : a (A) =       9.060580          9.179323
       Cell parameter : b (A) =       9.057276          9.186636
       Cell parameter : c (A) =       9.426605          9.295223
       Cell angle : alpha (o) =      96.477210         94.857466
       Cell angle : beta  (o) =      93.947007         94.846061
       Cell angle : gamma (o) =      95.329435         95.518741
       Cell volume :   (A**3) =     762.862550        772.335857
  ** Time :            0.97000 ps :
     Properties:                   Instantaneous       Averaged
       Kinetic energy    (eV) =       1.387172          1.359971
       Potential energy  (eV) =   -1533.155029      -1533.994064
       Total energy      (eV) =   -1531.767858      -1532.634093
       Temperature       (K)  =     306.617958        300.605501
       C/S temperature   (K)  =       0.458855          0.557839
       Pressure         (GPa) =      -0.877947          0.004615
       Cell parameter : a (A) =       9.322710          9.180062
       Cell parameter : b (A) =       8.949369          9.185413
       Cell parameter : c (A) =       9.428672          9.295911
       Cell angle : alpha (o) =      95.663746         94.861622
       Cell angle : beta  (o) =      93.455457         94.838893
       Cell angle : gamma (o) =      95.329902         95.517768
       Cell volume :   (A**3) =     777.515023        772.362553
  ** Time :            0.97500 ps :
     Properties:                   Instantaneous       Averaged
       Kinetic energy    (eV) =       1.354604          1.359943
       Potential energy  (eV) =   -1529.579925      -1533.971427
       Total energy      (eV) =   -1528.225322      -1532.611484
       Temperature       (K)  =     299.419171        300.599417
       C/S temperature   (K)  =       0.457255          0.557324
       Pressure         (GPa) =      -1.404291         -0.002655
       Cell parameter : a (A) =       9.553930          9.181979
       Cell parameter : b (A) =       8.887311          9.183884
       Cell parameter : c (A) =       9.358677          9.296233
       Cell angle : alpha (o) =      94.932762         94.861987
       Cell angle : beta  (o) =      93.501523         94.832034
       Cell angle : gamma (o) =      96.135183         95.520934
       Cell volume :   (A**3) =     785.173250        772.428249
  ** Time :            0.98000 ps :
     Properties:                   Instantaneous       Averaged
       Kinetic energy    (eV) =       1.307154          1.359674
       Potential energy  (eV) =   -1529.557055      -1533.948905
       Total energy      (eV) =   -1528.249902      -1532.589231
       Temperature       (K)  =     288.930883        300.539884
       C/S temperature   (K)  =       0.505134          0.557057
       Pressure         (GPa) =      -0.912338         -0.007312
       Cell parameter : a (A) =       9.655411          9.184394
       Cell parameter : b (A) =       8.846411          9.182163
       Cell parameter : c (A) =       9.274297          9.296121
       Cell angle : alpha (o) =      94.583059         94.860564
       Cell angle : beta  (o) =      94.291218         94.829275
       Cell angle : gamma (o) =      97.135966         95.529174
       Cell volume :   (A**3) =     780.639729        772.470144
  ** Time :            0.98500 ps :
     Properties:                   Instantaneous       Averaged
       Kinetic energy    (eV) =       1.291861          1.359330
       Potential energy  (eV) =   -1533.297808      -1533.945600
       Total energy      (eV) =   -1532.005948      -1532.586270
       Temperature       (K)  =     285.550558        300.463796
       C/S temperature   (K)  =       0.557156          0.557058
       Pressure         (GPa) =       0.072795         -0.007023
       Cell parameter : a (A) =       9.591233          9.186460
       Cell parameter : b (A) =       8.819346          9.180321
       Cell parameter : c (A) =       9.244325          9.295858
       Cell angle : alpha (o) =      94.579293         94.859136
       Cell angle : beta  (o) =      95.506418         94.832712
       Cell angle : gamma (o) =      97.566322         95.539515
       Cell volume :   (A**3) =     768.181301        772.448374
  ** Time :            0.99000 ps :
     Properties:                   Instantaneous       Averaged
       Kinetic energy    (eV) =       1.344280          1.359254
       Potential energy  (eV) =   -1537.276031      -1533.962420
       Total energy      (eV) =   -1535.931752      -1532.603167
       Temperature       (K)  =     297.137148        300.446995
       C/S temperature   (K)  =       0.612732          0.557339
       Pressure         (GPa) =       1.220830         -0.000928
       Cell parameter : a (A) =       9.400409          9.187540
       Cell parameter : b (A) =       8.825362          9.178528
       Cell parameter : c (A) =       9.292600          9.295842
       Cell angle : alpha (o) =      94.651429         94.858087
       Cell angle : beta  (o) =      96.516273         94.841215
       Cell angle : gamma (o) =      97.020775         95.546996
       Cell volume :   (A**3) =     756.675690        772.368714
  ** Time :            0.99500 ps :
     Properties:                   Instantaneous       Averaged
       Kinetic energy    (eV) =       1.434822          1.359633
       Potential energy  (eV) =   -1538.265589      -1533.984044
       Total energy      (eV) =   -1536.830767      -1532.624411
       Temperature       (K)  =     317.150578        300.530932
       C/S temperature   (K)  =       0.519836          0.557151
       Pressure         (GPa) =       1.562553          0.006927
       Cell parameter : a (A) =       9.180153          9.187503
       Cell parameter : b (A) =       8.916271          9.177210
       Cell parameter : c (A) =       9.380708          9.296268
       Cell angle : alpha (o) =      94.448375         94.856028
       Cell angle : beta  (o) =      96.783748         94.850977
       Cell angle : gamma (o) =      95.927652         95.548909
       Cell volume :   (A**3) =     755.246062        772.282670
  ** Time :            1.00000 ps :
     Properties:                   Instantaneous       Averaged
       Kinetic energy    (eV) =       1.400789          1.359839
       Potential energy  (eV) =   -1536.219446      -1533.995221
       Total energy      (eV) =   -1534.818657      -1532.635382
       Temperature       (K)  =     309.627925        300.576417
       C/S temperature   (K)  =       0.481576          0.556773
       Pressure         (GPa) =       0.298996          0.008290
       Cell parameter : a (A) =       9.016322          9.186647
       Cell parameter : b (A) =       9.122387          9.176936
       Cell parameter : c (A) =       9.438326          9.296979
       Cell angle : alpha (o) =      93.906819         94.851282
       Cell angle : beta  (o) =      96.255263         94.857998
       Cell angle : gamma (o) =      95.242817         95.547378
       Cell volume :   (A**3) =     766.060729        772.251560

  Peak dynamic memory used =       2.06 MB 


  Timing analysis for GULP :

--------------------------------------------------------------------------------
  Task / Subroutine                                          Time (Seconds)
--------------------------------------------------------------------------------
  Calculation of reciprocal space energy and derivatives          8.6549
  Calculation of real space energy and derivatives              195.9552
  Calculation of three-body energy and derivatives                0.2135
  Calculation of matrix inversion                                 0.0131
  Symmetry generation of equivalent positions                     0.0011
  Molecular dynamics - update of geometry                         0.0973
  Molecular dynamics - predictor                                  0.0084
  Molecular dynamics - corrector                                  0.1370
  Molecular dynamics - velocity correction                        0.0524
  Global summation overhead                                       0.0111
--------------------------------------------------------------------------------
  Total CPU time                                                206.1907
--------------------------------------------------------------------------------


  Dump file written as example19.grs


  Job Finished at 11:44.37  8th July       2020                               

