********************************************************************************
*                       GENERAL UTILITY LATTICE PROGRAM                        *
*                                 Julian Gale                                  *
*                       Curtin Institute for Computation                       *
*                    School of Molecular and Life Sciences                     *
*                    Curtin University, Western Australia                      *
********************************************************************************
* Version = 6.0.0 * Last modified =   7th July 2020                            *
********************************************************************************
*  optimise     - perform optimisation run                                     *
*  conp         - constant pressure calculation                                *
*  qiterative   - use iterative solution of charges in ReaxFF / EEM / QEq      *
*  property     - calculate properties for final geometry                      *
*  phonon       - calculate phonons for final geometry                         *
*  nosymmetry   - turn off symmetry after initial structure generation         *
*  full         - generate full unit cell when symmetry is removed             *
*  sm           - electronegativity equalisation method (Streitz and Mintmire) *
*  eembond      - split bond electronegativity equalisation method to be used  *
*  allbonds     - use all bonds in split bond electronegativity method         *
*  bond         - calculate bond lengths                                       *
*  molq         - molecule option activated, but with Coulomb terms retained   *
********************************************************************************

  Job Started  at 13:01.10  8th July       2020                               

  Number of CPUs =     1

  Host name      = M-A0034725                              


  Total number of configurations input =      1

********************************************************************************
*  Input for Configuration =   1                                               *
********************************************************************************

  Formula = O4Li8                                                       

  Number of irreducible atoms/shells =      12


  Total number atoms/shells =      12

  Dimensionality = 3               :  Bulk   



  Cartesian lattice vectors (Angstroms) :

        4.660000    0.000000    0.000000
        0.000000    4.660000    0.000000
        0.000000    0.000000    4.660000

  Cell parameters (Angstroms/Degrees):

  a =       4.6600    alpha =  90.0000
  b =       4.6600    beta  =  90.0000
  c =       4.6600    gamma =  90.0000

  Initial cell volume =         101.194696 Angs**3

  Temperature of configuration =   0.00     K 

  Pressure of configuration =         0.000 GPa 

  Fractional coordinates of asymmetric unit :

--------------------------------------------------------------------------------
   No.  Atomic       x           y          z         Charge      Occupancy
        Label      (Frac)      (Frac)     (Frac)        (e)         (Frac)  
--------------------------------------------------------------------------------
      1 O     c    0.000000    0.000000    0.000000     0.00000    1.000000    
      2 O     c    0.000000 *  0.500000 *  0.500000 *   0.00000    1.000000    
      3 O     c    0.500000 *  0.000000 *  0.500000 *   0.00000    1.000000    
      4 O     c    0.500000 *  0.500000 *  0.000000 *   0.00000    1.000000    
      5 Li    c    0.250000 *  0.250000 *  0.250000 *   0.00000    1.000000    
      6 Li    c    0.250000 *  0.750000 *  0.750000 *   0.00000    1.000000    
      7 Li    c    0.750000 *  0.250000 *  0.750000 *   0.00000    1.000000    
      8 Li    c    0.750000 *  0.750000 *  0.250000 *   0.00000    1.000000    
      9 Li    c    0.750000 *  0.750000 *  0.750000 *   0.00000    1.000000    
     10 Li    c    0.750000 *  0.250000 *  0.250000 *   0.00000    1.000000    
     11 Li    c    0.250000 *  0.750000 *  0.250000 *   0.00000    1.000000    
     12 Li    c    0.250000 *  0.250000 *  0.750000 *   0.00000    1.000000    
--------------------------------------------------------------------------------



  Molecule list generated from bond lengths :

  Bonds between the following atom types will be excluded : 

   Li    Core   - Li    Core
   Li    Core   - Mn    Core
   Li    Core   - Co    Core
   Mn    Core   - Mn    Core
   Mn    Core   - Co    Core
   Co    Core   - Co    Core
   Si    Core   - Si    Core
   Ti    Core   - Ti    Core
   O     Core   - O     Core


  Total number of molecules =     1

--------------------------------------------------------------------------------
Molecule No./:  Atoms
Periodicity  :  
--------------------------------------------------------------------------------
     1  3    : O    c     1 O    c     2 O    c     3 O    c     4 Li   c     5
             : Li   c     6 Li   c     7 Li   c     8 Li   c     9 Li   c    10
             : Li   c    11 Li   c    12
--------------------------------------------------------------------------------


  Bond calculation :

--------------------------------------------------------------------------------
  Asymmetric unit site  Full lattice sites    No.  Distance      Bond Type      
                                                    (Angs)                      
--------------------------------------------------------------------------------
      1    O     core        Li    core        8    2.0178    single       
--------------------------------------------------------------------------------
      2    O     core        Li    core        8    2.0178    single       
--------------------------------------------------------------------------------
      3    O     core        Li    core        8    2.0178    single       
--------------------------------------------------------------------------------
      4    O     core        Li    core        8    2.0178    single       
--------------------------------------------------------------------------------
      5    Li    core        O     core        4    2.0178    single       
--------------------------------------------------------------------------------
      6    Li    core        O     core        4    2.0178    single       
--------------------------------------------------------------------------------
      7    Li    core        O     core        4    2.0178    single       
--------------------------------------------------------------------------------
      8    Li    core        O     core        4    2.0178    single       
--------------------------------------------------------------------------------
      9    Li    core        O     core        4    2.0178    single       
--------------------------------------------------------------------------------
     10    Li    core        O     core        4    2.0178    single       
--------------------------------------------------------------------------------
     11    Li    core        O     core        4    2.0178    single       
--------------------------------------------------------------------------------
     12    Li    core        O     core        4    2.0178    single       
--------------------------------------------------------------------------------
  Total number of bonds =       32
--------------------------------------------------------------------------------


  Brillouin zone sampling points :

--------------------------------------------------------------------------------
  Point number          x          y          z            Weight
--------------------------------------------------------------------------------
        1           0.000000   0.000000   0.000000     1.00000000
--------------------------------------------------------------------------------


********************************************************************************
*  General input information                                                   *
********************************************************************************

  Species output for all configurations : 

--------------------------------------------------------------------------------
  Species    Type    Atomic    Atomic    Charge       Radii (Angs)     Library
                     Number     Mass       (e)     Cova   Ionic  VDW   Symbol
--------------------------------------------------------------------------------
    O        Core        8      16.00   0.000000   1.030  0.000  1.360          
    Li       Core        3       6.94   0.000000   0.980  0.000  1.800          
--------------------------------------------------------------------------------



  Charge equilibration parameters for Streitz and Mintmire: 

--------------------------------------------------------------------------------
  Element   Chi        Mu       Zeta      Znuc     Q0       E0     Qmin    Qmax 
            (eV)      (eV)     (1/Ang)    (au)    (au)     (eV)    (au)    (au) 
--------------------------------------------------------------------------------
   Li    90.50000    75.00000  10.0000   0.0000   0.0000  50.000    -     -1.000
   Li  -109.50000    75.00000  10.0000   0.0000   0.0000  50.000   1.000    -   
   Li    -9.50000    25.00000  10.0000   0.0000   0.0000   0.000  -1.000   1.000
   O    221.37000    65.88000   2.3900   0.0000   0.0000 205.630    -     -2.000
   O   -201.15000    65.88000   2.3900   0.0000   0.0000 205.630   2.000    -   
   O     21.37000    15.88000   2.3900   0.0000   0.0000   5.630  -2.000  -1.000
   O     10.11000    10.25000   2.3900   0.0000   0.0000   0.000  -1.000   1.000
   O     -1.15000    15.88000   2.3900   0.0000   0.0000   5.630   1.000   2.000
--------------------------------------------------------------------------------


  Lattice summation method               =    Ewald          (3-D)
                                         =    Parry          (2-D)
                                         =    Saunders et al (1-D)
  Accuracy factor for lattice sums       =   12.000


  Analytic derivatives to be used

  Time limit = Infinity

  Maximum range for interatomic potentials =         4.800000 Angstroms

  Taper potentials to zero over   1.0000 Angstroms using M-D-F

  General interatomic potentials :

--------------------------------------------------------------------------------
Atom  Types   Potential      Parameter       Value         Units   Cutoffs(Ang)
  1     2                                                            Min /  Max 
--------------------------------------------------------------------------------
Li   c Li   c Many-body                                             0.000  4.800
--------------------------------------------------------------------------------
Li   c O    c Many-body                                             0.000  4.800
--------------------------------------------------------------------------------
O    c O    c Many-body                                             0.000  4.800
--------------------------------------------------------------------------------
Li   c Li   c Baskes        Baskes Ec        1.6500000    eV        0.000  8.000
                            Baskes A        0.95000000    None      
                            Baskes alpha     3.0982600    None      
                            Baskes r0        3.0200000    Ang       
                            Baskes Z         8.0000000    None      
                            Baskes rho0      1.0000000    None      
                            Baskes d        0.50000000E-01None      
--------------------------------------------------------------------------------
O    c O    c Baskes        Baskes Ec        2.5600000    eV        0.000  8.000
                            Baskes A         1.4400000    None      
                            Baskes alpha     6.8800000    None      
                            Baskes r0        1.2100000    Ang       
                            Baskes Z         1.0000000    None      
                            Baskes rho0      1.0000000    None      
                            Baskes d         0.0000000    None      
--------------------------------------------------------------------------------
Li   c O    c Baskes        Baskes Ec        1.6836000    eV        0.000  8.000
                            Baskes A         1.0000000    None      
                            Baskes alpha     7.3151056    None      
                            Baskes r0        1.9500000    Ang       
                            Baskes Z         6.0000000    None      
                            Baskes rho0     0.50000000    None      
                            Baskes d        0.70000000E-01None      
--------------------------------------------------------------------------------

  Modified Embedded Atom Model Densities :

--------------------------------------------------------------------------------
  Atom(s)       Functional/Order        A          B          C         n      
--------------------------------------------------------------------------------
  Li   c        Baskes       0      0.5000      1.650      3.020         0
                             1      0.5000      1.000      3.020         0
                             2      0.5000      4.000      3.020         0
                             3      0.5000      1.000      3.020         0
  O    c        Baskes       0       12.00      5.470      1.210         0
                             1       12.00      5.300      1.210         0
                             2       12.00      5.180      1.210         0
                             3       12.00      5.570      1.210         0
--------------------------------------------------------------------------------


  Embedded Atom Model alloy parameters :

--------------------------------------------------------------------------------
  Atom(s)                          Scale factor 
--------------------------------------------------------------------------------
  Li    c                            1.000000
  O     c                            1.000000
--------------------------------------------------------------------------------

  Embedded Atom Model functional = Baskes

--------------------------------------------------------------------------------
  Atom                     Ec          A            rho0
--------------------------------------------------------------------------------
  Li    c               1.650000   0.950000        6.17192    
          MEAM type = exponential : 24 term
          MEAM order/coefficients =  4   1.0000   2.3000   5.0000   0.5000
  O     c               2.560000    1.44000        13.0374    
          MEAM type = exponential : 24 term
          MEAM order/coefficients =  4   1.0000   0.1000   0.1100   0.0000
--------------------------------------------------------------------------------


  Manybody second derivative cross term cutoffs to be scaled by = 0.50000000
  Modified Embedded Atom Model screening parameters 

--------------------------------------------------------------------------------
  Atom 1    Atom 2    Atom 3            C_min       C_max 
--------------------------------------------------------------------------------
  Li    c   Li    c   Li    c          0.160000    2.800000
  Li    c   O     c   Li    c          0.700000    1.350000
  Li    c   O     c   O     c          0.300000    1.550000
  O     c   Li    c   Li    c          1.000000    1.550000
  O     c   O     c   Li    c          0.600000    2.150000
  O     c   O     c   O     c          2.000000    2.800000
--------------------------------------------------------------------------------


********************************************************************************
*  Output for configuration   1                                                *
********************************************************************************

  Iterative solution of charge equilibration :

  ** Cycle :    1 Qdiff : 0.47463980
  ** Cycle :    2 Qdiff : 0.00000000


  Final charges from split-bond EEM :

--------------------------------------------------------------------------------
    Atom no.            Atomic No.             Charge
--------------------------------------------------------------------------------
         1                   8                -0.7119597
         2                   8                -0.7119597
         3                   8                -0.7119597
         4                   8                -0.7119597
         5                   3                 0.3559799
         6                   3                 0.3559799
         7                   3                 0.3559799
         8                   3                 0.3559799
         9                   3                 0.3559799
        10                   3                 0.3559799
        11                   3                 0.3559799
        12                   3                 0.3559799
--------------------------------------------------------------------------------
    Bond no.            Atom Nos.              Charge
--------------------------------------------------------------------------------
         1                 5     1             0.0889950
         2                 5     2             0.0889950
         3                 5     3             0.0889950
         4                 5     4             0.0889950
         5                 6     1             0.0889950
         6                 6     2             0.0889950
         7                 6     3             0.0889950
         8                 6     4             0.0889950
         9                 7     1             0.0889950
        10                 7     2             0.0889950
        11                 7     3             0.0889950
        12                 7     4             0.0889950
        13                 8     1             0.0889950
        14                 8     2             0.0889950
        15                 8     3             0.0889950
        16                 8     4             0.0889950
        17                 9     1             0.0889950
        18                 9     2             0.0889950
        19                 9     3             0.0889950
        20                 9     4             0.0889950
        21                10     1             0.0889950
        22                10     2             0.0889950
        23                10     3             0.0889950
        24                10     4             0.0889950
        25                11     1             0.0889950
        26                11     2             0.0889950
        27                11     3             0.0889950
        28                11     4             0.0889950
        29                12     1             0.0889950
        30                12     2             0.0889950
        31                12     3             0.0889950
        32                12     4             0.0889950
--------------------------------------------------------------------------------
  Self energy       =        -9.719437 eV
--------------------------------------------------------------------------------

  Components of energy : 

--------------------------------------------------------------------------------
  Interatomic potentials     =         -13.53498138 eV    
  Many-body potentials       =          -5.89469051 eV    
  Monopole - monopole (real) =          -6.69333229 eV    
  Monopole - monopole (recip)=         -11.53325235 eV    
  Monopole - monopole (total)=         -18.22658464 eV    
  Self energy (EEM/QEq/SM)   =          -9.71943680 eV    
  SM Coulomb correction      =           0.02296189 eV    
--------------------------------------------------------------------------------
  Total lattice energy       =         -47.35273143 eV    
--------------------------------------------------------------------------------
  Total lattice energy       =           -4568.8147 kJ/(mole unit cells)
--------------------------------------------------------------------------------


  Number of variables =       39

  Maximum number of calculations  =          1000
  Maximum Hessian update interval =            10
  Maximum step size               =   1.000000000
  Maximum parameter tolerance     =   0.000010000
  Maximum function  tolerance     =   0.000010000
  Maximum gradient  tolerance     =   0.001000000
  Maximum gradient  component     =   0.010000000

  Cell parameters to be optimised using strains

  Newton-Raphson optimiser to be used

  BFGS hessian update to be used

  Lower half triangular hessian to be used

  Dumpfile to be written after every cycle

  Start of bulk optimisation :

  Cycle:      0 Energy:       -47.352731  Gnorm:      0.114769  CPU:    0.032
  Cycle:      1 Energy:       -47.393246  Gnorm:      0.020322  CPU:    0.095
  Cycle:      2 Energy:       -47.394671  Gnorm:      0.000007  CPU:    0.148


  **** Optimisation achieved ****


  Final energy =     -47.39467136 eV
  Final Gnorm  =       0.00000000

  Components of energy : 

--------------------------------------------------------------------------------
  Interatomic potentials     =         -13.39943728 eV    
  Many-body potentials       =          -6.26947233 eV    
  Monopole - monopole (real) =          -6.52629398 eV    
  Monopole - monopole (recip)=         -11.24542936 eV    
  Monopole - monopole (total)=         -17.77172334 eV    
  Self energy (EEM/QEq/SM)   =          -9.97437899 eV    
  SM Coulomb correction      =           0.02034058 eV    
--------------------------------------------------------------------------------
  Total lattice energy       =         -47.39467136 eV    
--------------------------------------------------------------------------------
  Total lattice energy       =           -4572.8613 kJ/(mole unit cells)
--------------------------------------------------------------------------------

  Final fractional coordinates of atoms :

--------------------------------------------------------------------------------
   No.  Atomic        x           y           z         Radius      Charge
        Label       (Frac)      (Frac)     (Frac)       (Angs) 
--------------------------------------------------------------------------------
     1  O     c     0.000000    0.000000    0.000000    0.000000   -0.706929
     2  O     c     0.000000    0.500000    0.500000    0.000000   -0.706929
     3  O     c     0.500000    0.000000    0.500000    0.000000   -0.706929
     4  O     c     0.500000    0.500000    0.000000    0.000000   -0.706929
     5  Li    c     0.250000    0.250000    0.250000    0.000000    0.353465
     6  Li    c     0.250000    0.750000    0.750000    0.000000    0.353465
     7  Li    c     0.750000    0.250000    0.750000    0.000000    0.353465
     8  Li    c     0.750000    0.750000    0.250000    0.000000    0.353465
     9  Li    c     0.750000    0.750000    0.750000    0.000000    0.353465
    10  Li    c     0.750000    0.250000    0.250000    0.000000    0.353465
    11  Li    c     0.250000    0.750000    0.250000    0.000000    0.353465
    12  Li    c     0.250000    0.250000    0.750000    0.000000    0.353465
--------------------------------------------------------------------------------

  Final Cartesian lattice vectors (Angstroms) :

        4.711971    0.000000    0.000000
        0.000000    4.711971   -0.000000
        0.000000   -0.000000    4.711971


  Final cell parameters and derivatives :

--------------------------------------------------------------------------------
       a            4.711971 Angstrom     dE/de1(xx)     0.000000 eV/strain
       b            4.711971 Angstrom     dE/de2(yy)     0.000000 eV/strain
       c            4.711971 Angstrom     dE/de3(zz)     0.000000 eV/strain
       alpha       90.000000 Degrees      dE/de4(yz)    -0.000000 eV/strain
       beta        90.000000 Degrees      dE/de5(xz)     0.000000 eV/strain
       gamma       90.000000 Degrees      dE/de6(xy)    -0.000000 eV/strain
--------------------------------------------------------------------------------

  Primitive cell volume =           104.618362 Angs**3

  Density of cell =      1.897093 g/cm**3

  Non-primitive cell volume =           104.618362 Angs**3


  Final internal derivatives :

--------------------------------------------------------------------------------
   No.  Atomic          a             b             c           Radius
        Label          (eV)          (eV)          (eV)        (eV/Angs)
--------------------------------------------------------------------------------
      1 O     c       0.000000      0.000000      0.000000      0.000000
      2 O     c       0.000000     -0.000000      0.000000      0.000000
      3 O     c      -0.000000      0.000000     -0.000000      0.000000
      4 O     c      -0.000000     -0.000000      0.000000      0.000000
      5 Li    c       0.000000     -0.000000      0.000000      0.000000
      6 Li    c       0.000000      0.000000     -0.000000      0.000000
      7 Li    c      -0.000000      0.000000      0.000000      0.000000
      8 Li    c      -0.000000     -0.000000     -0.000000      0.000000
      9 Li    c       0.000000      0.000000     -0.000000      0.000000
     10 Li    c       0.000000      0.000000      0.000000      0.000000
     11 Li    c       0.000000      0.000000     -0.000000      0.000000
     12 Li    c       0.000000      0.000000     -0.000000      0.000000
--------------------------------------------------------------------------------
  Maximum abs         0.000000      0.000000      0.000000      0.000000
--------------------------------------------------------------------------------


  Bond calculation :

--------------------------------------------------------------------------------
  Asymmetric unit site  Full lattice sites    No.  Distance      Bond Type      
                                                    (Angs)                      
--------------------------------------------------------------------------------
      1    O     core        Li    core        8    2.0403    single       
--------------------------------------------------------------------------------
      2    O     core        Li    core        8    2.0403    single       
--------------------------------------------------------------------------------
      3    O     core        Li    core        8    2.0403    single       
--------------------------------------------------------------------------------
      4    O     core        Li    core        8    2.0403    single       
--------------------------------------------------------------------------------
      5    Li    core        O     core        4    2.0403    single       
--------------------------------------------------------------------------------
      6    Li    core        O     core        4    2.0403    single       
--------------------------------------------------------------------------------
      7    Li    core        O     core        4    2.0403    single       
--------------------------------------------------------------------------------
      8    Li    core        O     core        4    2.0403    single       
--------------------------------------------------------------------------------
      9    Li    core        O     core        4    2.0403    single       
--------------------------------------------------------------------------------
     10    Li    core        O     core        4    2.0403    single       
--------------------------------------------------------------------------------
     11    Li    core        O     core        4    2.0403    single       
--------------------------------------------------------------------------------
     12    Li    core        O     core        4    2.0403    single       
--------------------------------------------------------------------------------
  Total number of bonds =       32
--------------------------------------------------------------------------------




  Elastic Constant Matrix: (Units=GPa)

-------------------------------------------------------------------------------
  Indices      1         2         3         4         5         6    
-------------------------------------------------------------------------------
       1    252.7323   39.2021   39.2021   -0.0000   -0.0000   -0.0000
       2     39.2021  252.7323   39.2021   -0.0000   -0.0000   -0.0000
       3     39.2021   39.2021  252.7323   -0.0000   -0.0000   -0.0000
       4     -0.0000   -0.0000   -0.0000   52.3722   -0.0000    0.0000
       5     -0.0000   -0.0000   -0.0000   -0.0000   52.3722   -0.0000
       6     -0.0000   -0.0000   -0.0000    0.0000   -0.0000   52.3722
-------------------------------------------------------------------------------


  Elastic Compliance Matrix: (Units=1/GPa)

-------------------------------------------------------------------------------
  Indices      1         2         3         4         5         6    
-------------------------------------------------------------------------------
       1    0.004129 -0.000554 -0.000554 -0.000000  0.000000  0.000000
       2   -0.000554  0.004129 -0.000554  0.000000  0.000000  0.000000
       3   -0.000554 -0.000554  0.004129  0.000000  0.000000  0.000000
       4   -0.000000  0.000000  0.000000  0.019094  0.000000 -0.000000
       5    0.000000  0.000000  0.000000  0.000000  0.019094  0.000000
       6    0.000000  0.000000  0.000000 -0.000000  0.000000  0.019094
-------------------------------------------------------------------------------

  Mechanical properties :

-------------------------------------------------------------------------------
  Convention :                    Reuss         Voigt         Hill
-------------------------------------------------------------------------------
  Bulk  Modulus (GPa)     =     110.37882     110.37882     110.37882
  Shear Modulus (GPa)     =      65.77647      74.12936      69.95292
-------------------------------------------------------------------------------
  Velocity S-wave (km/s)  =       5.88831       6.25102       6.07238
  Velocity P-wave (km/s)  =      10.21826      10.50159      10.36089
-------------------------------------------------------------------------------
  Compressibility (1/GPa) =    0.00905971
-------------------------------------------------------------------------------
  Stress axis :                     x             y             z
-------------------------------------------------------------------------------
  Youngs Moduli (GPa)     =     242.20392     242.20392     242.20392
-------------------------------------------------------------------------------
  Poissons Ratio (x)      =                     0.13428       0.13428
  Poissons Ratio (y)      =       0.13428                     0.13428
  Poissons Ratio (z)      =       0.13428       0.13428
-------------------------------------------------------------------------------


  Piezoelectric Strain Matrix: (Units=C/m**2)

-------------------------------------------------------------------------------
  Indices      1         2         3         4         5         6    
-------------------------------------------------------------------------------
       x    -0.00000  -0.00000  -0.00000   0.00000   0.00000   0.00000
       y    -0.00000  -0.00000  -0.00000   0.00000   0.00000   0.00000
       z    -0.00000  -0.00000  -0.00000  -0.00000   0.00000   0.00000
-------------------------------------------------------------------------------


  Piezoelectric Stress Matrix: (Units=10**-11 C/N)

-------------------------------------------------------------------------------
  Indices      1         2         3         4         5         6    
-------------------------------------------------------------------------------
       x    -0.00000  -0.00000  -0.00000   0.00000   0.00000   0.00000
       y    -0.00000  -0.00000  -0.00000   0.00000   0.00000   0.00000
       z    -0.00000  -0.00000  -0.00000  -0.00000   0.00000   0.00000
-------------------------------------------------------------------------------


  Static dielectric constant tensor : 

-------------------------------------------------------------------------------
              x         y         z
-------------------------------------------------------------------------------
       x     1.34293  -0.00000  -0.00000
       y    -0.00000   1.34293  -0.00000
       z    -0.00000  -0.00000   1.34293
--------------------------------------------------------------------------------

  Static refractive indices : 

-------------------------------------------------------------------------------
    1 =    1.15885      2 =    1.15885      3 =    1.15885
-------------------------------------------------------------------------------


  Phonon Calculation : 

  Number of k points for this configuration =        1

--------------------------------------------------------------------------------
  K point      1 =   0.000000  0.000000  0.000000  Weight =    1.000
--------------------------------------------------------------------------------

  Frequencies (cm-1) [NB: Negative implies an imaginary mode]:

   -0.00   -0.00    0.00  320.05  320.05  320.05  320.05  320.05  320.05
  367.36  367.36  367.36  391.46  391.46  391.46  391.46  391.46  391.46
  428.21  428.21  428.21  562.83  562.83  562.83  607.36  607.36  607.36
  651.15  651.15  651.15  665.11  665.11  665.11  665.11  665.11  665.11


--------------------------------------------------------------------------------
  Phonon properties (per mole of unit cells): Temperature =      0.000 K
--------------------------------------------------------------------------------
  Zero point energy            =        0.998726 eV
--------------------------------------------------------------------------------

  Time to end of optimisation =       2.9242 seconds

  Iterative solution of charge equilibration :

  ** Cycle :    1 Qdiff : 0.00000013


  Final charges from split-bond EEM :

--------------------------------------------------------------------------------
    Atom no.            Atomic No.             Charge
--------------------------------------------------------------------------------
         1                   8                -0.7069292
         2                   8                -0.7069292
         3                   8                -0.7069292
         4                   8                -0.7069292
         5                   3                 0.3534646
         6                   3                 0.3534646
         7                   3                 0.3534646
         8                   3                 0.3534646
         9                   3                 0.3534646
        10                   3                 0.3534646
        11                   3                 0.3534646
        12                   3                 0.3534646
--------------------------------------------------------------------------------
    Bond no.            Atom Nos.              Charge
--------------------------------------------------------------------------------
         1                 5     1             0.0883661
         2                 5     2             0.0883661
         3                 5     3             0.0883661
         4                 5     4             0.0883661
         5                 6     1             0.0883661
         6                 6     2             0.0883661
         7                 6     3             0.0883661
         8                 6     4             0.0883661
         9                 7     1             0.0883661
        10                 7     2             0.0883661
        11                 7     3             0.0883661
        12                 7     4             0.0883661
        13                 8     1             0.0883661
        14                 8     2             0.0883661
        15                 8     3             0.0883661
        16                 8     4             0.0883661
        17                 9     1             0.0883661
        18                 9     2             0.0883661
        19                 9     3             0.0883661
        20                 9     4             0.0883661
        21                10     1             0.0883661
        22                10     2             0.0883661
        23                10     3             0.0883661
        24                10     4             0.0883661
        25                11     1             0.0883661
        26                11     2             0.0883661
        27                11     3             0.0883661
        28                11     4             0.0883661
        29                12     1             0.0883661
        30                12     2             0.0883661
        31                12     3             0.0883661
        32                12     4             0.0883661
--------------------------------------------------------------------------------
  Self energy       =        -9.974379 eV
--------------------------------------------------------------------------------

  Peak dynamic memory used =       2.56 MB 


  Timing analysis for GULP :

--------------------------------------------------------------------------------
  Task / Subroutine                                          Time (Seconds)
--------------------------------------------------------------------------------
  Calculation of reciprocal space energy and derivatives          0.0188
  Calculation of real space energy and derivatives                2.2048
  Calculation of many-body energy and derivatives                 0.4507
  Calculation of molecules and connectivity                       0.0017
  Calculation of phonons                                          0.8083
  Electronegativity equalisation                                  0.2389
  Symmetry generation of equivalent positions                     0.0009
  Global summation overhead                                       0.0004
--------------------------------------------------------------------------------
  Total CPU time                                                  2.9252
--------------------------------------------------------------------------------


  Dump file written as example66.res


  Job Finished at 13:01.12  8th July       2020                               

