********************************************************************************
*                       GENERAL UTILITY LATTICE PROGRAM                        *
*                                 Julian Gale                                  *
*                       Curtin Institute for Computation                       *
*                    School of Molecular and Life Sciences                     *
*                    Curtin University, Western Australia                      *
********************************************************************************
* Version = 6.0.0 * Last modified =   7th July 2020                            *
********************************************************************************
*  optimise     - perform optimisation run                                     *
*  conv         - constant volume calculation                                  *
*  noelectro    - do not include electrostatic terms despite charges present   *
*  distance     - calculate distances                                          *
*  lbfgs        - use limited memory BFGS update                               *
********************************************************************************

  Job Started  at 11:59.02  8th July       2020                               

  Number of CPUs =     1

  Host name      = M-A0034725                              


  Total number of configurations input =      1

********************************************************************************
*  Input for Configuration =   1                                               *
********************************************************************************

  Formula = C2H4                                                        

  Number of irreducible atoms/shells =       6


  Total number atoms/shells =       6

  Dimensionality = 0               :  Cluster


  Charge on cluster =   0.000000


  Initial cluster dipoles : x =      0.000000 e.Angs
                            y =      0.000000 e.Angs
                            z =      0.000000 e.Angs

  Temperature of configuration =   0.00     K 

  Symmetry number =      1

  Cartesian coordinates of cluster :

--------------------------------------------------------------------------------
   No.  Atomic       x           y          z         Charge      Occupancy
        Label      (Angs)      (Angs)     (Angs)        (e)         (Frac)  
--------------------------------------------------------------------------------
      1 C     c      0.0000      0.0000      0.0000     0.00000    1.000000    
      2 C     c      1.4000 *    0.0000 *    0.0000 *   0.00000    1.000000    
      3 H     c     -0.7000 *    0.7000 *    0.0000 *   0.00000    1.000000    
      4 H     c     -0.7000 *   -0.7000 *    0.0000 *   0.00000    1.000000    
      5 H     c      2.1000 *    0.7000 *    0.0000 *   0.00000    1.000000    
      6 H     c      2.1000 *   -0.7000 *    0.0000 *   0.00000    1.000000    
--------------------------------------------------------------------------------



  Distance calculation :


  Cutoff for distances  =      2.000000 Angstroms

--------------------------------------------------------------------------------
  Asymmetric unit site  Full lattice sites    No.  Distance      No.  Distance
      No.   At.No.            At.No.                (Angs)             (Angs) 
--------------------------------------------------------------------------------
       1   C     core        C     core         1    1.4000
                             H     core         2    0.9899
--------------------------------------------------------------------------------
       2   C     core        C     core         1    1.4000
                             H     core         2    0.9899
--------------------------------------------------------------------------------
       3   H     core        C     core         1    0.9899
                             H     core         1    1.4000
--------------------------------------------------------------------------------
       4   H     core        C     core         1    0.9899
                             H     core         1    1.4000
--------------------------------------------------------------------------------
       5   H     core        C     core         1    0.9899
                             H     core         1    1.4000
--------------------------------------------------------------------------------
       6   H     core        C     core         1    0.9899
                             H     core         1    1.4000
--------------------------------------------------------------------------------



********************************************************************************
*  General input information                                                   *
********************************************************************************

  Species output for all configurations : 

--------------------------------------------------------------------------------
  Species    Type    Atomic    Atomic    Charge       Radii (Angs)     Library
                     Number     Mass       (e)     Cova   Ionic  VDW   Symbol
--------------------------------------------------------------------------------
    C        Core        6      12.01   0.000000   0.770  0.000  1.530          
    H        Core        1       1.01   0.000000   0.370  0.000  1.080          
--------------------------------------------------------------------------------


  Accuracy factor for short range sums = 12.000

  Electrostatics method = Direct Coulomb

  Analytic derivatives to be used

  Time limit = Infinity

  Maximum range for interatomic potentials =    100000.000000 Angstroms

  ReaxFF forcefield to be used

  ReaxFF Coulomb cutoff =  10.0000 Ang
  ReaxFF VDW     cutoff =  10.0000 Ang
  ReaxFF H-bond  cutoff =   7.5000 Ang

  ReaxFF pairwise bond order       threshold = 0.00100000000000
  ReaxFF angle/torsion bond order  threshold = 0.00100000000000
  ReaxFF bond order double product threshold = 0.00000100000000
  ReaxFF bond order triple product threshold = 0.00000000100000
  ReaxFF hydrogen-bond bond order  threshold = 0.01000000000000


********************************************************************************
*  Output for configuration   1                                                *
********************************************************************************


  Components of energy : 

--------------------------------------------------------------------------------
  Interatomic potentials     =           0.00000000 eV    
  ReaxFF force field         =         -22.44152137 eV    
  Monopole - monopole (real) =           0.00000000 eV    
--------------------------------------------------------------------------------
  Total lattice energy       =         -22.44152137 eV    
--------------------------------------------------------------------------------
  Total lattice energy       =           -2165.2638 kJ/mol
--------------------------------------------------------------------------------


  Number of variables =       15

  Maximum number of calculations  =          1000
  Maximum Hessian update interval =            10
  Maximum step size               =   1.000000000
  Maximum parameter tolerance     =   0.000010000
  Maximum function  tolerance     =   0.000010000
  Maximum gradient  tolerance     =   0.001000000
  Maximum gradient  component     =   0.010000000

  Maximum LM gradient tolerance   =   0.900000000
  Symmetry not applied to optimisation

  Limited Memory BFGS to be used of order   10

  BFGS hessian update to be used

  Lower half triangular hessian to be used

  Start of cluster optimisation :

  Cycle:      0 Energy:       -22.441521  Gnorm:      1.378616  CPU:    0.010
  Cycle:      1 Energy:       -24.967742  Gnorm:      0.786818  CPU:    0.010
  Cycle:      2 Energy:       -25.890160  Gnorm:      0.268612  CPU:    0.011
  Cycle:      3 Energy:       -26.085415  Gnorm:      0.200685  CPU:    0.011
  Cycle:      4 Energy:       -26.393591  Gnorm:      0.217267  CPU:    0.011
  Cycle:      5 Energy:       -26.443941  Gnorm:      0.177891  CPU:    0.011
  Cycle:      6 Energy:       -26.479845  Gnorm:      0.067925  CPU:    0.011
  Cycle:      7 Energy:       -26.492501  Gnorm:      0.020137  CPU:    0.011
  Cycle:      8 Energy:       -26.493506  Gnorm:      0.009087  CPU:    0.012
  Cycle:      9 Energy:       -26.494006  Gnorm:      0.007113  CPU:    0.012
  Cycle:     10 Energy:       -26.494260  Gnorm:      0.004084  CPU:    0.012
  Cycle:     11 Energy:       -26.494291  Gnorm:      0.000253  CPU:    0.012


  **** Optimisation achieved ****


  Final energy =     -26.49429070 eV
  Final Gnorm  =       0.00001052

  Components of energy : 

--------------------------------------------------------------------------------
  Interatomic potentials     =           0.00000000 eV    
  ReaxFF force field         =         -26.49429070 eV    
  Monopole - monopole (real) =           0.00000000 eV    
--------------------------------------------------------------------------------
  Total lattice energy       =         -26.49429070 eV    
--------------------------------------------------------------------------------
  Total lattice energy       =           -2556.2941 kJ/mol
--------------------------------------------------------------------------------

  Final cartesian coordinates of atoms :

--------------------------------------------------------------------------------
   No.  Atomic        x           y          z          Radius
        Label       (Angs)      (Angs)     (Angs)       (Angs) 
--------------------------------------------------------------------------------
     1  C     c     0.000000    0.000000    0.000000    0.000000
     2  C     c     1.345872   -0.000000    0.000000    0.000000
     3  H     c    -0.579604    0.951812    0.000000    0.000000
     4  H     c    -0.579604   -0.951812    0.000000    0.000000
     5  H     c     1.925471    0.951817    0.000000    0.000000
     6  H     c     1.925471   -0.951817    0.000000    0.000000
--------------------------------------------------------------------------------


  Final Cartesian derivatives :

--------------------------------------------------------------------------------
   No.  Atomic          x             y             z           Radius
        Label       (eV/Angs)     (eV/Angs)    (eV/Angs)      (eV/Angs)
--------------------------------------------------------------------------------
      1 C     c       0.000000      0.000000      0.000000      0.000000
      2 C     c       0.000076     -0.000000      0.000000      0.000000
      3 H     c      -0.000031     -0.000006      0.000000      0.000000
      4 H     c      -0.000031      0.000006      0.000000      0.000000
      5 H     c       0.000005      0.000092      0.000000      0.000000
      6 H     c       0.000005     -0.000092      0.000000      0.000000
--------------------------------------------------------------------------------
  Maximum abs         0.000076      0.000092      0.000000      0.000000
--------------------------------------------------------------------------------


  Distance calculation :


  Cutoff for distances  =      2.000000 Angstroms

--------------------------------------------------------------------------------
  Asymmetric unit site  Full lattice sites    No.  Distance      No.  Distance
      No.   At.No.            At.No.                (Angs)             (Angs) 
--------------------------------------------------------------------------------
       1   C     core        C     core         1    1.3459
                             H     core         2    1.1144
--------------------------------------------------------------------------------
       2   C     core        C     core         1    1.3459
                             H     core         2    1.1144
--------------------------------------------------------------------------------
       3   H     core        C     core         1    1.1144
                             H     core         1    1.9036
--------------------------------------------------------------------------------
       4   H     core        C     core         1    1.1144
                             H     core         1    1.9036
--------------------------------------------------------------------------------
       5   H     core        C     core         1    1.1144
                             H     core         1    1.9036
--------------------------------------------------------------------------------
       6   H     core        C     core         1    1.1144
                             H     core         1    1.9036
--------------------------------------------------------------------------------



  Time to end of optimisation =       0.0122 seconds



  Final charges from ReaxFF :

--------------------------------------------------------------------------------
    Atom no.            Atomic No.             Charge
--------------------------------------------------------------------------------
         1                   6                -0.2107079
         2                   6                -0.2107074
         3                   1                 0.1053538
         4                   1                 0.1053538
         5                   1                 0.1053538
         6                   1                 0.1053538
--------------------------------------------------------------------------------


  Peak dynamic memory used =       1.79 MB 


  Timing analysis for GULP :

--------------------------------------------------------------------------------
  Task / Subroutine                                          Time (Seconds)
--------------------------------------------------------------------------------
  Calculation of reaxFF energy and derivatives                    0.0019
  Electronegativity equalisation                                  0.0002
--------------------------------------------------------------------------------
  Total CPU time                                                  0.0123
--------------------------------------------------------------------------------


  Job Finished at 11:59.02  8th July       2020                               

