********************************************************************************
*                       GENERAL UTILITY LATTICE PROGRAM                        *
*                                 Julian Gale                                  *
*                       Curtin Institute for Computation                       *
*                    School of Molecular and Life Sciences                     *
*                    Curtin University, Western Australia                      *
********************************************************************************
* Version = 6.0.0 * Last modified =   7th July 2020                            *
********************************************************************************
*  single       - perform a single point run                                   *
*  phonon       - calculate phonons for final geometry                         *
*  nofrequency  - suppress frequency output after phonon calculation           *
********************************************************************************

  Job Started  at 11:35.05  8th July       2020                               

  Number of CPUs =     1

  Host name      = M-A0034725                              


  Total number of configurations input =      1

********************************************************************************
*  Input for Configuration =   1                                               *
********************************************************************************

  Formula = Mg4O4                                                       

  Number of irreducible atoms/shells =      12


  Total number atoms/shells =      12

  Dimensionality = 3               :  Bulk   



  Cartesian lattice vectors (Angstroms) :

        4.212000    0.000000    0.000000
        0.000000    4.212000    0.000000
        0.000000    0.000000    4.212000

  Cell parameters (Angstroms/Degrees):

  a =       4.2120    alpha =  90.0000
  b =       4.2120    beta  =  90.0000
  c =       4.2120    gamma =  90.0000

  Initial cell volume =          74.724856 Angs**3

  Shrinking factors =      4     4     4

  Temperature of configuration =   0.00     K 

  Pressure of configuration =         0.000 GPa 

  Fractional coordinates of asymmetric unit :

--------------------------------------------------------------------------------
   No.  Atomic       x           y          z         Charge      Occupancy
        Label      (Frac)      (Frac)     (Frac)        (e)         (Frac)  
--------------------------------------------------------------------------------
      1 Mg    c    0.000000    0.000000    0.000000     2.00000    1.000000    
      2 Mg    c    0.000000    0.500000    0.500000     2.00000    1.000000    
      3 Mg    c    0.500000    0.000000    0.500000     2.00000    1.000000    
      4 Mg    c    0.500000    0.500000    0.000000     2.00000    1.000000    
      5 O     c    0.500000    0.500000    0.500000     0.86902    1.000000    
      6 O     c    0.500000    0.000000    0.000000     0.86902    1.000000    
      7 O     c    0.000000    0.500000    0.000000     0.86902    1.000000    
      8 O     c    0.000000    0.000000    0.500000     0.86902    1.000000    
      9 O     s    0.500000    0.500000    0.500000    -2.86902    1.000000    
     10 O     s    0.500000    0.000000    0.000000    -2.86902    1.000000    
     11 O     s    0.000000    0.500000    0.000000    -2.86902    1.000000    
     12 O     s    0.000000    0.000000    0.500000    -2.86902    1.000000    
--------------------------------------------------------------------------------


  Brillouin zone sampling points :

--------------------------------------------------------------------------------
  Point number          x          y          z            Weight
--------------------------------------------------------------------------------
        1           0.000000   0.000000   0.000000     0.01612903
        2           0.017241   0.017241   0.017241     0.01612903
        3           0.034483   0.034483   0.034483     0.01612903
        4           0.051724   0.051724   0.051724     0.01612903
        5           0.068966   0.068966   0.068966     0.01612903
        6           0.086207   0.086207   0.086207     0.01612903
        7           0.103448   0.103448   0.103448     0.01612903
        8           0.120690   0.120690   0.120690     0.01612903
        9           0.137931   0.137931   0.137931     0.01612903
       10           0.155172   0.155172   0.155172     0.01612903
       11           0.172414   0.172414   0.172414     0.01612903
       12           0.189655   0.189655   0.189655     0.01612903
       13           0.206897   0.206897   0.206897     0.01612903
       14           0.224138   0.224138   0.224138     0.01612903
       15           0.241379   0.241379   0.241379     0.01612903
       16           0.258621   0.258621   0.258621     0.01612903
       17           0.275862   0.275862   0.275862     0.01612903
       18           0.293103   0.293103   0.293103     0.01612903
       19           0.310345   0.310345   0.310345     0.01612903
       20           0.327586   0.327586   0.327586     0.01612903
       21           0.344828   0.344828   0.344828     0.01612903
       22           0.362069   0.362069   0.362069     0.01612903
       23           0.379310   0.379310   0.379310     0.01612903
       24           0.396552   0.396552   0.396552     0.01612903
       25           0.413793   0.413793   0.413793     0.01612903
       26           0.431034   0.431034   0.431034     0.01612903
       27           0.448276   0.448276   0.448276     0.01612903
       28           0.465517   0.465517   0.465517     0.01612903
       29           0.482759   0.482759   0.482759     0.01612903
       30           0.500000   0.500000   0.500000     0.01612903
       31           0.125000   0.125000   0.125000     0.01612903
       32           0.125000   0.125000   0.375000     0.01612903
       33           0.125000   0.125000   0.625000     0.01612903
       34           0.125000   0.125000   0.875000     0.01612903
       35           0.125000   0.375000   0.125000     0.01612903
       36           0.125000   0.375000   0.375000     0.01612903
       37           0.125000   0.375000   0.625000     0.01612903
       38           0.125000   0.375000   0.875000     0.01612903
       39           0.125000   0.625000   0.125000     0.01612903
       40           0.125000   0.625000   0.375000     0.01612903
       41           0.125000   0.625000   0.625000     0.01612903
       42           0.125000   0.625000   0.875000     0.01612903
       43           0.125000   0.875000   0.125000     0.01612903
       44           0.125000   0.875000   0.375000     0.01612903
       45           0.125000   0.875000   0.625000     0.01612903
       46           0.125000   0.875000   0.875000     0.01612903
       47           0.375000   0.125000   0.125000     0.01612903
       48           0.375000   0.125000   0.375000     0.01612903
       49           0.375000   0.125000   0.625000     0.01612903
       50           0.375000   0.125000   0.875000     0.01612903
       51           0.375000   0.375000   0.125000     0.01612903
       52           0.375000   0.375000   0.375000     0.01612903
       53           0.375000   0.375000   0.625000     0.01612903
       54           0.375000   0.375000   0.875000     0.01612903
       55           0.375000   0.625000   0.125000     0.01612903
       56           0.375000   0.625000   0.375000     0.01612903
       57           0.375000   0.625000   0.625000     0.01612903
       58           0.375000   0.625000   0.875000     0.01612903
       59           0.375000   0.875000   0.125000     0.01612903
       60           0.375000   0.875000   0.375000     0.01612903
       61           0.375000   0.875000   0.625000     0.01612903
       62           0.375000   0.875000   0.875000     0.01612903
--------------------------------------------------------------------------------


********************************************************************************
*  General input information                                                   *
********************************************************************************

  Species output for all configurations : 

--------------------------------------------------------------------------------
  Species    Type    Atomic    Atomic    Charge       Radii (Angs)     Library
                     Number     Mass       (e)     Cova   Ionic  VDW   Symbol
--------------------------------------------------------------------------------
    Mg       Core       12      24.31   2.000000   1.100  0.000  1.640          
    O        Core        8      16.00   0.869020   0.730  0.000  1.360          
    O        Shell       8       0.00  -2.869020   0.730  0.000  1.360          
--------------------------------------------------------------------------------


  Lattice summation method               =    Ewald          (3-D)
                                         =    Parry          (2-D)
                                         =    Saunders et al (1-D)
  Accuracy factor for lattice sums       =   12.000


  Analytic derivatives to be used

  Time limit = Infinity

  Maximum range for interatomic potentials =    100000.000000 Angstroms

  General interatomic potentials :

--------------------------------------------------------------------------------
Atom  Types   Potential      Parameter       Value         Units   Cutoffs(Ang)
  1     2                                                            Min /  Max 
--------------------------------------------------------------------------------
Mg   c O    s Buckingham    Buckingham A     1295.5534    eV        0.000  8.000
                            Buckingham rho  0.30000000    Ang       
                            Buckingham C     0.0000000    eV*Ang^6  
--------------------------------------------------------------------------------
O    s O    s Buckingham    Buckingham A     22764.000    eV        0.000 12.000
                            Buckingham rho  0.14900000    Ang       
                            Buckingham C     27.880000    eV*Ang^6  
--------------------------------------------------------------------------------
O    c O    s Spring (c-s)  Spring k 2       74.920000    eV*Ang^-2 0.000  0.800
                            Spring k 4       0.0000000    eV*Ang^-4 
--------------------------------------------------------------------------------

********************************************************************************
*  Output for configuration   1                                                *
********************************************************************************


  Components of energy : 

--------------------------------------------------------------------------------
  Interatomic potentials     =          26.88207570 eV    
  Monopole - monopole (real) =         -57.34563089 eV    
  Monopole - monopole (recip)=        -133.83771537 eV    
  Monopole - monopole (total)=        -191.18334626 eV    
--------------------------------------------------------------------------------
  Total lattice energy       =        -164.30127056 eV    
--------------------------------------------------------------------------------
  Total lattice energy       =          -15852.5610 kJ/(mole unit cells)
--------------------------------------------------------------------------------

  Born effective charge tensors : 

-------------------------------------------------------------------------------
  Atom             x           y             z
-------------------------------------------------------------------------------
    1 Mg    x       1.9975      0.0000     -0.0000
            y       0.0000      1.9975     -0.0000
            z      -0.0000     -0.0000      1.9975
-------------------------------------------------------------------------------
    2 Mg    x       1.9975      0.0000     -0.0000
            y       0.0000      1.9975     -0.0000
            z      -0.0000     -0.0000      1.9975
-------------------------------------------------------------------------------
    3 Mg    x       1.9975      0.0000     -0.0000
            y       0.0000      1.9975     -0.0000
            z      -0.0000     -0.0000      1.9975
-------------------------------------------------------------------------------
    4 Mg    x       1.9975      0.0000     -0.0000
            y       0.0000      1.9975     -0.0000
            z      -0.0000     -0.0000      1.9975
-------------------------------------------------------------------------------
    5 O     x      -1.9975     -0.0000      0.0000
            y      -0.0000     -1.9975      0.0000
            z       0.0000      0.0000     -1.9975
-------------------------------------------------------------------------------
    6 O     x      -1.9975     -0.0000      0.0000
            y      -0.0000     -1.9975      0.0000
            z       0.0000      0.0000     -1.9975
-------------------------------------------------------------------------------
    7 O     x      -1.9975     -0.0000     -0.0000
            y      -0.0000     -1.9975      0.0000
            z      -0.0000      0.0000     -1.9975
-------------------------------------------------------------------------------
    8 O     x      -1.9975     -0.0000      0.0000
            y      -0.0000     -1.9975      0.0000
            z       0.0000      0.0000     -1.9975
-------------------------------------------------------------------------------




  Elastic Constant Matrix: (Units=GPa)

-------------------------------------------------------------------------------
  Indices      1         2         3         4         5         6    
-------------------------------------------------------------------------------
       1    372.0647  162.8690  162.8690   -0.0000    0.0000   -0.0000
       2    162.8690  372.0647  162.8690    0.0000   -0.0000    0.0000
       3    162.8690  162.8690  372.0647    0.0000    0.0000    0.0000
       4     -0.0000    0.0000    0.0000  162.8714    0.0000   -0.0000
       5      0.0000   -0.0000    0.0000    0.0000  162.8714    0.0000
       6     -0.0000    0.0000    0.0000   -0.0000    0.0000  162.8714
-------------------------------------------------------------------------------


  Elastic Compliance Matrix: (Units=1/GPa)

-------------------------------------------------------------------------------
  Indices      1         2         3         4         5         6    
-------------------------------------------------------------------------------
       1    0.003664 -0.001116 -0.001116  0.000000 -0.000000  0.000000
       2   -0.001116  0.003664 -0.001116 -0.000000  0.000000 -0.000000
       3   -0.001116 -0.001116  0.003664 -0.000000 -0.000000  0.000000
       4    0.000000 -0.000000 -0.000000  0.006140 -0.000000  0.000000
       5   -0.000000  0.000000 -0.000000 -0.000000  0.006140 -0.000000
       6    0.000000 -0.000000  0.000000  0.000000 -0.000000  0.006140
-------------------------------------------------------------------------------

  Mechanical properties :

-------------------------------------------------------------------------------
  Convention :                    Reuss         Voigt         Hill
-------------------------------------------------------------------------------
  Bulk  Modulus (GPa)     =     232.60090     232.60090     232.60090
  Shear Modulus (GPa)     =     133.19021     139.56197     136.37609
-------------------------------------------------------------------------------
  Velocity S-wave (km/s)  =       6.09683       6.24096       6.16932
  Velocity P-wave (km/s)  =      10.69940      10.80964      10.75466
-------------------------------------------------------------------------------
  Compressibility (1/GPa) =    0.00429921
-------------------------------------------------------------------------------
  Stress axis :                     x             y             z
-------------------------------------------------------------------------------
  Youngs Moduli (GPa)     =     272.88857     272.88857     272.88857
-------------------------------------------------------------------------------
  Poissons Ratio (x)      =                     0.30447       0.30447
  Poissons Ratio (y)      =       0.30447                     0.30447
  Poissons Ratio (z)      =       0.30447       0.30447
-------------------------------------------------------------------------------


  Piezoelectric Strain Matrix: (Units=C/m**2)

-------------------------------------------------------------------------------
  Indices      1         2         3         4         5         6    
-------------------------------------------------------------------------------
       x     0.00000   0.00000   0.00000   0.00000   0.00000   0.00000
       y     0.00000   0.00000   0.00000   0.00000   0.00000  -0.00000
       z     0.00000   0.00000  -0.00000  -0.00000  -0.00000   0.00000
-------------------------------------------------------------------------------


  Piezoelectric Stress Matrix: (Units=10**-11 C/N)

-------------------------------------------------------------------------------
  Indices      1         2         3         4         5         6    
-------------------------------------------------------------------------------
       x     0.00000  -0.00000  -0.00000   0.00000   0.00000   0.00000
       y    -0.00000  -0.00000   0.00000   0.00000   0.00000  -0.00000
       z     0.00000   0.00000  -0.00000  -0.00000  -0.00000   0.00000
-------------------------------------------------------------------------------


  Static dielectric constant tensor : 

-------------------------------------------------------------------------------
              x         y         z
-------------------------------------------------------------------------------
       x     9.00732   0.00000  -0.00000
       y     0.00000   9.00732  -0.00000
       z    -0.00000  -0.00000   9.00732
--------------------------------------------------------------------------------

  High frequency dielectric constant tensor : 

-------------------------------------------------------------------------------
              x         y         z
-------------------------------------------------------------------------------
       x     2.19129   0.00000  -0.00000
       y     0.00000   2.19129  -0.00000
       z    -0.00000  -0.00000   2.19129
-------------------------------------------------------------------------------

  Static refractive indices : 

-------------------------------------------------------------------------------
    1 =    3.00122      2 =    3.00122      3 =    3.00122
-------------------------------------------------------------------------------

  High frequency refractive indices : 

-------------------------------------------------------------------------------
    1 =    1.48030      2 =    1.48030      3 =    1.48030
-------------------------------------------------------------------------------


  Phonon Calculation : 

  K direction for n-a correction at gamma =  1.00000  1.00000  1.00000
              or the direction of phonon dispersion

  Number of k points for this configuration =       62

--------------------------------------------------------------------------------
  Phonon properties (per mole of unit cells): Temperature =      0.000 K
--------------------------------------------------------------------------------
  Zero point energy            =        0.629754 eV
--------------------------------------------------------------------------------

  Phonon density of states : 

--------------------------------------------------------------------------------
 Frequency (cm-1) Density of States                                             
--------------------------------------------------------------------------------
    0.00000 |                                                              0.000
   12.53637 |                                                              0.000
   25.07274 |                                                              0.000
   37.60911 |                                                              0.000
   50.14549 |                                                              0.000
   62.68186 |                                                              0.000
   75.21823 |                                                              0.000
   87.75460 |**********                                                    0.010
  100.29097 |                                                              0.000
  112.82734 |                                                              0.000
  125.36372 |                                                              0.000
  137.90009 |                                                              0.000
  150.43646 |                                                              0.000
  162.97283 |                                                              0.000
  175.50920 |                                                              0.000
  188.04557 |***********************************                           0.036
  200.58195 |                                                              0.000
  213.11832 |***************                                               0.016
  225.65469 |                                                              0.000
  238.19106 |                                                              0.000
  250.72743 |**********                                                    0.010
  263.26380 |******************************                                0.031
  275.80018 |***************                                               0.016
  288.33655 |*********************************************                 0.047
  300.87292 |******************************                                0.031
  313.40929 |******************************                                0.031
  325.94566 |                                                              0.000
  338.48203 |************************************************************  0.062
  351.01841 |***************                                               0.016
  363.55478 |****************************************                      0.042
  376.09115 |************************************************************  0.062
  388.62752 |*************************                                     0.026
  401.16389 |*********************************************                 0.047
  413.70026 |************************************************************  0.062
  426.23664 |************************************************************  0.062
  438.77301 |*********************************************                 0.047
  451.30938 |***************                                               0.016
  463.84575 |*********************************************                 0.047
  476.38212 |*********************************************                 0.047
  488.91849 |******************************                                0.031
  501.45487 |                                                              0.000
  513.99124 |*****                                                         0.005
  526.52761 |                                                              0.000
  539.06398 |***************                                               0.016
  551.60035 |******************************                                0.031
  564.13672 |                                                              0.000
  576.67310 |***************                                               0.016
  589.20947 |******************************                                0.031
  601.74584 |                                                              0.000
  614.28221 |                                                              0.000
  626.81858 |                                                              0.000
  639.35495 |                                                              0.000
  651.89133 |*********************************************                 0.047
  664.42770 |***************                                               0.016
  676.96407 |                                                              0.000
  689.50044 |                                                              0.000
  702.03681 |                                                              0.000
  714.57318 |                                                              0.000
  727.10956 |********************                                          0.021
  739.64593 |                                                              0.000
  752.18230 |***************                                               0.016
  764.71867 |                                                              0.000
  777.25504 |                                                              0.000
  789.79141 |*****                                                         0.005
--------------------------------------------------------------------------------




  Phonon density of states written as example5.dens                 



  Phonon dispersion curves : 

--------------------------------------------------------------------------------
  Section number =   1
--------------------------------------------------------------------------------
  Frequency (cm-1) Phonon dispersion                                            
--------------------------------------------------------------------------------
   787.64   | * * * * * * * * * * * * *                                  
   754.82   |                           * * * * * *                      
   722.00   |                                       * * * *              
   689.18   |                                               * * * *      
   656.37   |                                             * * * * * * * *
   623.55   |                                 * * * * * *                
   590.73   | * * * * * * * * * * * * * * * *                 * * * * * *
   557.91   |                                         * * * * * * *      
   525.09   |                                   * * *       *            
   492.27   |                             * * *         * *              
   459.46   | * * * * * * * * * * * * * *           * *                  
   426.64   | * * * * * * * * * * *     * * * * * *                      
   393.82   | * * * * * * * * * *   * * * * * * * * * * *                
   361.00   |                   * * * * * * * * * * * * * * * * *        
   328.18   |         * * * * *         * *     * * * *       * * * * * *
   295.36   | * * * * * * * * * * * * * * * *           * * * * *        
   262.55   |                       *         * * * * * * * * * * * * * *
   229.73   |                   * *                 * * * *              
   196.91   |                 *               * * *                      
   164.09   |               *           * * *                            
   131.27   |           * *       * * *                                  
    98.45   |         *       * *                                        
    65.64   |       *   * * *                                            
    32.82   |     * * *                                                  
     0.00   |   * *                                                      
--------------------------------------------------------------------------------


  Phonon dispersion written as example5.disp                 

  Time to end of properties =       0.1178 seconds


  Peak dynamic memory used =       2.03 MB 


  Timing analysis for GULP :

--------------------------------------------------------------------------------
  Task / Subroutine                                          Time (Seconds)
--------------------------------------------------------------------------------
  Calculation of reciprocal space energy and derivatives          0.0484
  Calculation of real space energy and derivatives                0.0596
  Calculation of phonons                                          0.1106
  Calculation of matrix inversion                                 0.0002
--------------------------------------------------------------------------------
  Total CPU time                                                  0.1178
--------------------------------------------------------------------------------


  Job Finished at 11:35.05  8th July       2020                               

