********************************************************************************
*                       GENERAL UTILITY LATTICE PROGRAM                        *
*                                 Julian Gale                                  *
*                       Curtin Institute for Computation                       *
*                    School of Molecular and Life Sciences                     *
*                    Curtin University, Western Australia                      *
********************************************************************************
* Version = 6.0.0 * Last modified =   7th July 2020                            *
********************************************************************************
*  optimise     - perform optimisation run                                     *
*  conp         - constant pressure calculation                                *
*  property     - calculate properties for final geometry                      *
********************************************************************************
* alumina  - example of how to use a library to assign                         *
* the potentials                                                               *
********************************************************************************


  Job Started  at 11:35.08  8th July       2020                               

  Number of CPUs =     1

  Host name      = M-A0034725                              


  Total number of configurations input =      1

********************************************************************************
*  Input for Configuration =   1                                               *
********************************************************************************

  Formula = Al4O6                                                       

  Number of irreducible atoms/shells =       4


  Total number atoms/shells =      20

  Dimensionality = 3               :  Bulk   


  Symmetry :

  Crystal family                   :  Hexagonal   
  Crystal class  (Groth - 1921)    :  Ditrigonal Scalenohedral             

  Space group (centrosymmetric)    :  R -3 C          

  Patterson group                  :  R -3 m   

  Cartesian lattice vectors (Angstroms) :

        2.380100    1.374151    4.331100
       -2.380100    1.374151    4.331100
        0.000000   -2.748303    4.331100

  Primitive cell parameters :            Full cell parameters :

  a =   5.1295    alpha =  55.2915       a =   4.7602    alpha =  90.0000
  b =   5.1295    beta  =  55.2915       b =   4.7602    beta  =  90.0000
  c =   5.1295    gamma =  55.2915       c =  12.9933    gamma = 120.0000

  Initial volumes (Angstroms**3):

  Primitive cell =          84.992234    Full cell =         254.976701

  Temperature of configuration =   0.00     K 

  Pressure of configuration =         0.000 GPa 

  Fractional coordinates of asymmetric unit :

--------------------------------------------------------------------------------
   No.  Atomic       x           y          z         Charge      Occupancy
        Label      (Frac)      (Frac)     (Frac)        (e)         (Frac)  
--------------------------------------------------------------------------------
      1 Al    c    0.000000    0.000000    0.352160 *   0.04300    1.000000    
      2 O     c    0.306240 *  0.000000    0.250000     0.51300    1.000000    
      3 Al    s    0.000000    0.000000    0.352160 *   2.95700    1.000000    
      4 O     s    0.306240 *  0.000000    0.250000    -2.51300    1.000000    
--------------------------------------------------------------------------------


  Constraints : 

--------------------------------------------------------------------------------
  Constraint no.      Unconstrained     Constrained    Coefficient    Offset
                         Variable         Variable
--------------------------------------------------------------------------------
           1              Strain 1        Strain 2       1.00000      0.0000
--------------------------------------------------------------------------------


********************************************************************************
*  General input information                                                   *
********************************************************************************

  Species output for all configurations : 

--------------------------------------------------------------------------------
  Species    Type    Atomic    Atomic    Charge       Radii (Angs)     Library
                     Number     Mass       (e)     Cova   Ionic  VDW   Symbol
--------------------------------------------------------------------------------
    Al       Core       13      26.98   0.043000   1.350  0.000  2.050          
    O        Core        8      16.00   0.513000   0.730  0.000  1.360          
    Al       Shell      13       0.00   2.957000   1.350  0.000  2.050          
    O        Shell       8       0.00  -2.513000   0.730  0.000  1.360          
--------------------------------------------------------------------------------


  Lattice summation method               =    Ewald          (3-D)
                                         =    Parry          (2-D)
                                         =    Saunders et al (1-D)
  Accuracy factor for lattice sums       =   12.000


  Analytic derivatives to be used

  Time limit = Infinity

  Maximum range for interatomic potentials =    100000.000000 Angstroms

  General interatomic potentials :

--------------------------------------------------------------------------------
Atom  Types   Potential      Parameter       Value         Units   Cutoffs(Ang)
  1     2                                                            Min /  Max 
--------------------------------------------------------------------------------
O    s Al   s Buckingham    Buckingham A     2409.5050    eV        0.000 10.000
                            Buckingham rho  0.26490000    Ang       
                            Buckingham C     0.0000000    eV*Ang^6  
--------------------------------------------------------------------------------
O    s O    s Buckingham    Buckingham A     25.410000    eV        0.000 12.000
                            Buckingham rho  0.69370000    Ang       
                            Buckingham C     32.320000    eV*Ang^6  
--------------------------------------------------------------------------------
Al   c Al   s Spring (c-s)  Spring k 2       403.98000    eV*Ang^-2 0.000  0.800
                            Spring k 4       0.0000000    eV*Ang^-4 
--------------------------------------------------------------------------------
O    c O    s Spring (c-s)  Spring k 2       20.530000    eV*Ang^-2 0.000  0.800
                            Spring k 4       0.0000000    eV*Ang^-4 
--------------------------------------------------------------------------------

********************************************************************************
*  Output for configuration   1                                                *
********************************************************************************


  Components of energy : 

--------------------------------------------------------------------------------
  Interatomic potentials     =          63.08516927 eV    
  Monopole - monopole (real) =        -126.96762275 eV    
  Monopole - monopole (recip)=        -250.81566546 eV    
  Monopole - monopole (total)=        -377.78328821 eV    
--------------------------------------------------------------------------------
  Total lattice energy : 
    Primitive unit cell      =        -314.69811894 eV    
    Non-primitive unit cell  =        -944.09435681 eV    
--------------------------------------------------------------------------------
  Total lattice energy (in kJmol-1): 
    Primitive unit cell      =          -30363.5579 kJ/(mole unit cells)
    Non-primitive unit cell  =          -91090.6736 kJ/(mole unit cells)
--------------------------------------------------------------------------------


  Number of variables =        6

  Maximum number of calculations  =          1000
  Maximum Hessian update interval =            10
  Maximum step size               =   1.000000000
  Maximum parameter tolerance     =   0.000010000
  Maximum function  tolerance     =   0.000010000
  Maximum gradient  tolerance     =   0.001000000
  Maximum gradient  component     =   0.010000000

  Symmetry constrained optimisation

  Symmetry used for second derivatives

  Cell parameters to be optimised using strains

  Newton-Raphson optimiser to be used

  BFGS hessian update to be used

  Lower half triangular hessian to be used

  Start of bulk optimisation :

  Cycle:      0 Energy:      -314.698119  Gnorm:     19.420558  CPU:    0.010
  ** Hessian calculated **
  Cycle:      1 Energy:      -315.172727  Gnorm:      0.362449  CPU:    0.018
  Cycle:      2 Energy:      -315.173273  Gnorm:      0.058322  CPU:    0.025
  Cycle:      3 Energy:      -315.173281  Gnorm:      0.002438  CPU:    0.031


  **** Optimisation achieved ****


  Final energy =    -315.17328097 eV
  Final Gnorm  =       0.00009292

  Components of energy : 

--------------------------------------------------------------------------------
  Interatomic potentials     =          59.49166290 eV    
  Monopole - monopole (real) =         -65.58577192 eV    
  Monopole - monopole (recip)=        -309.07917195 eV    
  Monopole - monopole (total)=        -374.66494386 eV    
--------------------------------------------------------------------------------
  Total lattice energy : 
    Primitive unit cell      =        -315.17328097 eV    
    Non-primitive unit cell  =        -945.51984290 eV    
--------------------------------------------------------------------------------
  Total lattice energy (in kJmol-1): 
    Primitive unit cell      =          -30409.4037 kJ/(mole unit cells)
    Non-primitive unit cell  =          -91228.2112 kJ/(mole unit cells)
--------------------------------------------------------------------------------

  Final asymmetric unit coordinates :

--------------------------------------------------------------------------------
   No.  Atomic        x           y           z         Radius
        Label       (Frac)      (Frac)      (Frac)       (Angs) 
--------------------------------------------------------------------------------
     1  Al    c     0.000000    0.000000    0.356233    0.000000
     2  O     c     0.295773    0.000000    0.250000    0.000000
     3  Al    s     0.000000    0.000000    0.356234    0.000000
     4  O     s     0.297426    0.000000    0.250000    0.000000
--------------------------------------------------------------------------------

  Final Cartesian lattice vectors (Angstroms) :

        2.410027    1.391430    4.337219
       -2.410027    1.391430    4.337219
        0.000000   -2.782860    4.337219


  Final cell parameters and derivatives :

--------------------------------------------------------------------------------
       a            5.153230 Angstrom     dE/de1(xx)     0.000023 eV/strain
       b            5.153230 Angstrom     dE/de2(yy)     0.000000 eV/strain
       c            5.153230 Angstrom     dE/de3(zz)     0.000029 eV/strain
       alpha       55.766721 Degrees      dE/de4(yz)     0.000000 eV/strain
       beta        55.766721 Degrees      dE/de5(xz)     0.000000 eV/strain
       gamma       55.766721 Degrees      dE/de6(xy)     0.000000 eV/strain
--------------------------------------------------------------------------------

  Primitive cell volume =            87.266162 Angs**3

  Density of cell =      3.880341 g/cm**3

  Non-primitive lattice parameters :

  a    =     4.820054  b   =     4.820054  c    =    13.011658
  alpha=    90.000000  beta=    90.000000  gamma=   120.000000

  Non-primitive cell volume =           261.798487 Angs**3


  Final internal derivatives :

--------------------------------------------------------------------------------
   No.  Atomic          a             b             c           Radius
        Label          (eV)          (eV)          (eV)        (eV/Angs)
--------------------------------------------------------------------------------
      1 Al    c       0.000000      0.000000      0.000004      0.000000
      2 O     c      -0.000242      0.000000      0.000000      0.000000
      3 Al    s       0.000000      0.000000     -0.000382      0.000000
      4 O     s       0.000324      0.000000      0.000000      0.000000
--------------------------------------------------------------------------------
  Maximum abs         0.000324      0.000000      0.000382      0.000000
--------------------------------------------------------------------------------


  Born effective charge tensors : 

-------------------------------------------------------------------------------
  Atom             x           y             z
-------------------------------------------------------------------------------
    1 Al    x       2.4472     -0.3703     -0.0000
            y       0.3703      2.4472     -0.0000
            z      -0.0000     -0.0000      2.7488
-------------------------------------------------------------------------------
    2 O     x      -1.7494      0.0000     -0.0000
            y       0.0000     -1.5135      0.2579
            z      -0.0000      0.3340     -1.8325
-------------------------------------------------------------------------------




  Elastic Constant Matrix: (Units=GPa)

-------------------------------------------------------------------------------
  Indices      1         2         3         4         5         6    
-------------------------------------------------------------------------------
       1    607.5122  322.9448  182.3240   44.5916    0.0000    0.0000
       2    322.9448  607.5122  182.3240  -44.5916    0.0000    0.0000
       3    182.3240  182.3240  606.3490    0.0000   -0.0000    0.0000
       4     44.5916  -44.5916    0.0000   95.6295    0.0000    0.0000
       5      0.0000    0.0000   -0.0000    0.0000   95.6295   44.5916
       6      0.0000    0.0000    0.0000    0.0000   44.5916  142.2837
-------------------------------------------------------------------------------


  Elastic Compliance Matrix: (Units=1/GPa)

-------------------------------------------------------------------------------
  Indices      1         2         3         4         5         6    
-------------------------------------------------------------------------------
       1    0.002667 -0.001449 -0.000366 -0.001919  0.000000 -0.000000
       2   -0.001449  0.002667 -0.000366  0.001919 -0.000000  0.000000
       3   -0.000366 -0.000366  0.001870 -0.000000  0.000000 -0.000000
       4   -0.001919  0.001919 -0.000000  0.012247 -0.000000  0.000000
       5    0.000000 -0.000000  0.000000 -0.000000  0.012247 -0.003838
       6   -0.000000  0.000000 -0.000000  0.000000 -0.003838  0.008231
-------------------------------------------------------------------------------

  Mechanical properties :

-------------------------------------------------------------------------------
  Convention :                    Reuss         Voigt         Hill
-------------------------------------------------------------------------------
  Bulk  Modulus (GPa)     =     352.01360     355.17322     353.59341
  Shear Modulus (GPa)     =     110.52804     142.29389     126.41097
-------------------------------------------------------------------------------
  Velocity S-wave (km/s)  =       5.33705       6.05561       5.70765
  Velocity P-wave (km/s)  =      11.34442      11.85012      11.60003
-------------------------------------------------------------------------------
  Compressibility (1/GPa) =    0.00284080
-------------------------------------------------------------------------------
  Stress axis :                     x             y             z
-------------------------------------------------------------------------------
  Youngs Moduli (GPa)     =     374.96404     374.96404     534.89590
-------------------------------------------------------------------------------
  Poissons Ratio (x)      =                     0.54318       0.19595
  Poissons Ratio (y)      =       0.54318                     0.19595
  Poissons Ratio (z)      =       0.13736       0.13736
-------------------------------------------------------------------------------


  Piezoelectric Strain Matrix: (Units=C/m**2)

-------------------------------------------------------------------------------
  Indices      1         2         3         4         5         6    
-------------------------------------------------------------------------------
       x    -0.00000   0.00000   0.00000   0.00000   0.00000  -0.00000
       y    -0.00000   0.00000  -0.00000   0.00000  -0.00000  -0.00000
       z    -0.00000  -0.00000  -0.00000   0.00000   0.00000   0.00000
-------------------------------------------------------------------------------


  Piezoelectric Stress Matrix: (Units=10**-11 C/N)

-------------------------------------------------------------------------------
  Indices      1         2         3         4         5         6    
-------------------------------------------------------------------------------
       x    -0.00000   0.00000   0.00000   0.00000   0.00000  -0.00000
       y    -0.00000   0.00000  -0.00000   0.00000   0.00000  -0.00000
       z    -0.00000   0.00000  -0.00000   0.00000   0.00000  -0.00000
-------------------------------------------------------------------------------


  Static dielectric constant tensor : 

-------------------------------------------------------------------------------
              x         y         z
-------------------------------------------------------------------------------
       x    11.29306  -0.00000   0.00000
       y    -0.00000  11.29306  -0.00000
       z     0.00000  -0.00000  16.36466
--------------------------------------------------------------------------------

  High frequency dielectric constant tensor : 

-------------------------------------------------------------------------------
              x         y         z
-------------------------------------------------------------------------------
       x     5.63011  -0.00000   0.00000
       y    -0.00000   5.63011  -0.00000
       z     0.00000  -0.00000   6.08934
-------------------------------------------------------------------------------

  Static refractive indices : 

-------------------------------------------------------------------------------
    1 =    3.36052      2 =    3.36052      3 =    4.04533
-------------------------------------------------------------------------------

  High frequency refractive indices : 

-------------------------------------------------------------------------------
    1 =    2.37278      2 =    2.37278      3 =    2.46766
-------------------------------------------------------------------------------


  Time to end of optimisation =       0.0508 seconds


  Peak dynamic memory used =       1.93 MB 


  Timing analysis for GULP :

--------------------------------------------------------------------------------
  Task / Subroutine                                          Time (Seconds)
--------------------------------------------------------------------------------
  Calculation of reciprocal space energy and derivatives          0.0009
  Calculation of reciprocal space energy using symmetry           0.0015
  Calculation of real space energy and derivatives                0.0124
  Calculation of real space energy using symmetry                 0.0290
  Symmetry generation of equivalent positions                     0.0004
--------------------------------------------------------------------------------
  Total CPU time                                                  0.0508
--------------------------------------------------------------------------------


  Dump file written as example13.grs


  Job Finished at 11:35.09  8th July       2020                               

