********************************************************************************
*                       GENERAL UTILITY LATTICE PROGRAM                        *
*                                 Julian Gale                                  *
*                       Curtin Institute for Computation                       *
*                    School of Molecular and Life Sciences                     *
*                    Curtin University, Western Australia                      *
********************************************************************************
* Version = 6.0.0 * Last modified =   7th July 2020                            *
********************************************************************************
*  single       - perform a single point run                                   *
*  montecarlo   - perform a Monte Carlo run                                    *
*  conv         - constant volume calculation                                  *
*  molecule     - molecule option activated, Coulomb subtract within molecule  *
********************************************************************************

  Job Started  at 11:50.30  8th July       2020                               

  Number of CPUs =     1

  Host name      = M-A0034725                              


  Total number of configurations input =      1

********************************************************************************
*  Input for Configuration =   1 : hydrogen                                    *
********************************************************************************

  Formula =                                                             

  Number of irreducible atoms/shells =       0


  Total number atoms/shells =       0

  Dimensionality = 3               :  Bulk   



  Cartesian lattice vectors (Angstroms) :

       30.000000    0.000000    0.000000
        0.000000   30.000000    0.000000
        0.000000    0.000000   30.000000

  Cell parameters (Angstroms/Degrees):

  a =      30.0000    alpha =  90.0000
  b =      30.0000    beta  =  90.0000
  c =      30.0000    gamma =  90.0000

  Initial cell volume =       27000.000000 Angs**3

  Temperature of configuration =   100.     K 

  Pressure of configuration =         0.000 GPa 

  Fractional coordinates of asymmetric unit :

--------------------------------------------------------------------------------
   No.  Atomic       x           y          z         Charge      Occupancy
        Label      (Frac)      (Frac)     (Frac)        (e)         (Frac)  
--------------------------------------------------------------------------------
--------------------------------------------------------------------------------



  Molecule list generated from bond lengths :

  Total number of molecules =     0


********************************************************************************
*  General input information                                                   *
********************************************************************************

  Species output for all configurations : 

--------------------------------------------------------------------------------
  Species    Type    Atomic    Atomic    Charge       Radii (Angs)     Library
                     Number     Mass       (e)     Cova   Ionic  VDW   Symbol
--------------------------------------------------------------------------------
    H        Core        1       1.01   0.420000   0.370  0.000  0.000          
    He       Core        2       0.00  -0.840000   0.100  0.000  0.000          
--------------------------------------------------------------------------------


  Lattice summation method               =    Ewald          (3-D)
                                         =    Parry          (2-D)
                                         =    Saunders et al (1-D)
  Accuracy factor for lattice sums       =   12.000


  Analytic derivatives to be used

  Time limit = Infinity

  Maximum range for interatomic potentials =    100000.000000 Angstroms

  Intermolecular potentials :

--------------------------------------------------------------------------------
Atom  Types   Potential      Parameter       Value         Units   Cutoffs(Ang)
  1     2                                                            Min /  Max 
--------------------------------------------------------------------------------
He   c He   c Lenn/es       Lennard epsilon 0.28686000E-02eV        0.000 15.000
                            Lennard sigma/m  2.9700000    Ang       
                            Exponent m        12          None
                            Exponent n         6          None
--------------------------------------------------------------------------------

********************************************************************************
*  Output for configuration   1 : hydrogen                                     *
********************************************************************************


  Components of energy : 

--------------------------------------------------------------------------------
  Interatomic potentials     =           0.00000000 eV    
  Monopole - monopole (real) =           0.00000000 eV    
  Monopole - monopole (recip)=           0.00000000 eV    
  Monopole - monopole (total)=           0.00000000 eV    
--------------------------------------------------------------------------------
  Total lattice energy       =           0.00000000 eV    
--------------------------------------------------------------------------------
  Total lattice energy       =               0.0000 kJ/(mole unit cells)
--------------------------------------------------------------------------------

********************************************************************************
*  Monte Carlo                                                                 *
********************************************************************************

  Number of trial MC steps   =         1000

  Output frequency in steps  =          100

  Sample frequency in steps  =           10

  Probability of creation    =     0.333333
  Probability of destruction =     0.333333
  Probability of translation =     0.333333
  Probability of rotation    =     0.000000
  Probability of swap        =     0.000000
  Probability of strain      =     0.000000

  Maximum Cartesian shift    =     0.500000 Angstroms
  Maximum rotational shift   =   180.000000 degrees
  Maximum strain shift       =     0.100000
  Number of possible swaps   =            0

  Target chemical potential  =    -0.042000 eV
  Accessible volume          = 27000.000000 Angs**3


  Trials:       100 Accepted:        72 Mean E/N:       -0.001509    49.416667
  Trials:       200 Accepted:       142 Mean E/N:       -0.004878    83.852113
  Trials:       300 Accepted:       205 Mean E/N:       -0.013697   113.326829
  Trials:       400 Accepted:       282 Mean E/N:       -0.026909   146.244681
  Trials:       500 Accepted:       359 Mean E/N:       -0.039466   169.830084
  Trials:       600 Accepted:       438 Mean E/N:       -0.052704   191.404110
  Trials:       700 Accepted:       518 Mean E/N:       -0.062268   205.940154
  Trials:       800 Accepted:       590 Mean E/N:       -0.070470   216.513559
  Trials:       900 Accepted:       664 Mean E/N:       -0.076860   223.978916
  Trials:      1000 Accepted:       743 Mean E/N:       -0.080044   231.686406

  Monte Carlo properties :

  Mean number of atoms =      231.686406
  Mean   energy        =       -0.080044
  Lowest energy        =       -0.141985

  Acceptance ratios :

--------------------------------------------------------------------------------
 Operation          Attempts            Accepted            %Accepted
--------------------------------------------------------------------------------
 Creation                    332                 271          81.6265
 Destruction                 343                 172          50.1458
 Translation                 325                 300          92.3077
--------------------------------------------------------------------------------
 Total                      1000                 743          74.3000
--------------------------------------------------------------------------------


  Final fractional coordinates of atoms :

--------------------------------------------------------------------------------
   No.  Atomic        x           y          z          Radius
        Label       (Frac)      (Frac)     (Frac)       (Angs) 
--------------------------------------------------------------------------------
     1  H     c     0.841350   -0.006998    0.622141    0.000000
     2  He    c     0.830644   -0.007846    0.629044    0.000000
     3  H     c     0.819938   -0.008693    0.635947    0.000000
     4  H     c     0.782654    0.063724    0.976877    0.000000
     5  He    c     0.785362    0.056530    0.987070    0.000000
     6  H     c     0.788070    0.049336   -0.002737    0.000000
     7  H     c     0.438061    0.132363    0.475476    0.000000
     8  He    c     0.428019    0.128344    0.468694    0.000000
     9  H     c     0.417977    0.124326    0.461911    0.000000
    10  H     c     0.651938   -0.007151    0.883144    0.000000
    11  He    c     0.661296   -0.015261    0.886250    0.000000
    12  H     c     0.670654   -0.023370    0.889356    0.000000
    13  H     c     0.600074    0.270304    0.402226    0.000000
    14  He    c     0.595590    0.259350    0.407009    0.000000
    15  H     c     0.591106    0.248396    0.411793    0.000000
    16  H     c     0.094851    0.539967    0.374968    0.000000
    17  He    c     0.097961    0.527598    0.374409    0.000000
    18  H     c     0.101071    0.515228    0.373850    0.000000
    19  H     c     0.835196    0.641041    0.702573    0.000000
    20  He    c     0.837366    0.630364    0.709228    0.000000
    21  H     c     0.839536    0.619687    0.715883    0.000000
    22  H     c     0.474784    0.539795    0.083975    0.000000
    23  He    c     0.464663    0.547377    0.085727    0.000000
    24  H     c     0.454542    0.554959    0.087479    0.000000
    25  H     c     0.070902    0.691882    0.394609    0.000000
    26  He    c     0.058157    0.691838    0.393867    0.000000
    27  H     c     0.045412    0.691794    0.393125    0.000000
    28  H     c     0.348333    0.736637    0.145366    0.000000
    29  He    c     0.350145    0.728432    0.154977    0.000000
    30  H     c     0.351956    0.720227    0.164589    0.000000
    31  H     c     0.502765    0.252455    0.030893    0.000000
    32  He    c     0.499418    0.240145    0.030389    0.000000
    33  H     c     0.496070    0.227836    0.029884    0.000000
    34  H     c     0.595433    0.193512    0.715765    0.000000
    35  He    c     0.592109    0.182831    0.721918    0.000000
    36  H     c     0.588786    0.172151    0.728071    0.000000
    37  H     c     0.013921    0.254259    0.946409    0.000000
    38  He    c     0.014688    0.266436    0.942650    0.000000
    39  H     c     0.015454    0.278613    0.938891    0.000000
    40  H     c     0.899801    0.489558    0.340098    0.000000
    41  He    c     0.888270    0.494589    0.337928    0.000000
    42  H     c     0.876739    0.499621    0.335758    0.000000
    43  H     c     0.334166    0.575402    0.131525    0.000000
    44  He    c     0.321497    0.576948    0.131843    0.000000
    45  H     c     0.308829    0.578494    0.132162    0.000000
    46  H     c     0.501630   -0.013864    0.535457    0.000000
    47  He    c     0.511137   -0.006111    0.538992    0.000000
    48  H     c     0.520644    0.001642    0.542528    0.000000
    49  H     c     0.803972    0.576929    0.675042    0.000000
    50  He    c     0.793017    0.570376    0.675223    0.000000
    51  H     c     0.782062    0.563823    0.675404    0.000000
    52  H     c     0.367874    0.740762    0.798106    0.000000
    53  He    c     0.374259    0.733254    0.789992    0.000000
    54  H     c     0.380645    0.725745    0.781878    0.000000
    55  H     c     0.670962    0.297575    0.329173    0.000000
    56  He    c     0.663444    0.305666    0.322770    0.000000
    57  H     c     0.655926    0.313757    0.316366    0.000000
    58  H     c     0.996463    0.082838    0.712167    0.000000
    59  He    c     0.987307    0.091098    0.715472    0.000000
    60  H     c     0.978151    0.099358    0.718778    0.000000
    61  H     c     0.185399    0.935128    0.731597    0.000000
    62  He    c     0.184091    0.923714    0.737164    0.000000
    63  H     c     0.182782    0.912301    0.742732    0.000000
    64  H     c     0.627365    0.157780    0.377951    0.000000
    65  He    c     0.629654    0.145352    0.376140    0.000000
    66  H     c     0.631944    0.132924    0.374328    0.000000
    67  H     c     0.577304    0.611763    0.937144    0.000000
    68  He    c     0.579555    0.599209    0.937697    0.000000
    69  H     c     0.581806    0.586654    0.938250    0.000000
    70  H     c     0.509141    0.839257    0.067885    0.000000
    71  He    c     0.515693    0.829148    0.072112    0.000000
    72  H     c     0.522246    0.819040    0.076340    0.000000
    73  H     c     0.839119    0.950716    0.827510    0.000000
    74  He    c     0.828201    0.953685    0.821597    0.000000
    75  H     c     0.817282    0.956654    0.815685    0.000000
    76  H     c     0.893129    0.404026    0.115140    0.000000
    77  He    c     0.903504    0.408789    0.120855    0.000000
    78  H     c     0.913879    0.413552    0.126570    0.000000
    79  H     c     0.924695    0.623060    0.827857    0.000000
    80  He    c     0.918404    0.634101    0.826630    0.000000
    81  H     c     0.912113    0.645142    0.825402    0.000000
    82  H     c     0.026348    0.620911    0.893034    0.000000
    83  He    c     0.033514    0.626426    0.884021    0.000000
    84  H     c     0.040679    0.631940    0.875008    0.000000
    85  H     c     0.517359    0.852507    0.195574    0.000000
    86  He    c     0.520161    0.859081    0.184995    0.000000
    87  H     c     0.522963    0.865655    0.174416    0.000000
    88  H     c     0.223051    0.085354    0.718476    0.000000
    89  He    c     0.235465    0.083691    0.720949    0.000000
    90  H     c     0.247879    0.082027    0.723422    0.000000
    91  H     c     0.909759    0.372666    0.493999    0.000000
    92  He    c     0.897418    0.370290    0.491755    0.000000
    93  H     c     0.885077    0.367913    0.489511    0.000000
    94  H     c     0.056262    0.415075    0.101922    0.000000
    95  He    c     0.048309    0.407110    0.095898    0.000000
    96  H     c     0.040355    0.399145    0.089874    0.000000
    97  H     c     0.902847    0.190818    0.535539    0.000000
    98  He    c     0.905302    0.200380    0.527444    0.000000
    99  H     c     0.907756    0.209942    0.519349    0.000000
   100  H     c     0.457956    0.252915    0.190758    0.000000
   101  He    c     0.451904    0.258136    0.180803    0.000000
   102  H     c     0.445852    0.263357    0.170848    0.000000
   103  H     c     0.527810    0.451027    0.879604    0.000000
   104  He    c     0.515700    0.447209    0.878284    0.000000
   105  H     c     0.503589    0.443390    0.876963    0.000000
   106  H     c     0.074700    0.260264    0.035981    0.000000
   107  He    c     0.072234    0.268658    0.045279    0.000000
   108  H     c     0.069768    0.277052    0.054576    0.000000
   109  H     c     0.918628    0.731660    0.284140    0.000000
   110  He    c     0.928817    0.735234    0.277327    0.000000
   111  H     c     0.939005    0.738808    0.270515    0.000000
   112  H     c     0.976412    0.673465    0.199879    0.000000
   113  He    c     0.968001    0.664210    0.197315    0.000000
   114  H     c     0.959590    0.654954    0.194750    0.000000
   115  H     c     0.112854    0.161034    0.841164    0.000000
   116  He    c     0.108150    0.167643    0.851022    0.000000
   117  H     c     0.103446    0.174252    0.860880    0.000000
   118  H     c     0.518725    0.685055    0.467247    0.000000
   119  He    c     0.528281    0.676673    0.468436    0.000000
   120  H     c     0.537837    0.668291    0.469626    0.000000
   121  H     c     0.016984    0.397308    0.969159    0.000000
   122  He    c     0.008406    0.401242    0.977757    0.000000
   123  H     c     0.999828    0.405175    0.986355    0.000000
   124  H     c     0.291724    0.812106    0.505101    0.000000
   125  He    c     0.302856    0.808599    0.510275    0.000000
   126  H     c     0.313988    0.805091    0.515449    0.000000
   127  H     c     0.396469    0.424298    0.407309    0.000000
   128  He    c     0.388591    0.415327    0.402788    0.000000
   129  H     c     0.380713    0.406355    0.398267    0.000000
   130  H     c     0.970514    0.423782    0.061208    0.000000
   131  He    c     0.966941    0.436005    0.060290    0.000000
   132  H     c     0.963369    0.448227    0.059372    0.000000
   133  H     c     0.705705    0.508156    0.651559    0.000000
   134  He    c     0.693542    0.506500    0.648052    0.000000
   135  H     c     0.681379    0.504844    0.644544    0.000000
   136  H     c     0.508235    0.191814    0.399647    0.000000
   137  He    c     0.499627    0.199853    0.394720    0.000000
   138  H     c     0.491020    0.207892    0.389793    0.000000
   139  H     c     0.704576    0.090538    0.023000    0.000000
   140  He    c     0.699196    0.078965    0.022654    0.000000
   141  H     c     0.693816    0.067393    0.022309    0.000000
   142  H     c     0.700046    0.823398    0.278984    0.000000
   143  He    c     0.697105    0.829380    0.289872    0.000000
   144  H     c     0.694165    0.835362    0.300761    0.000000
   145  H     c     0.526419    0.256889    0.466334    0.000000
   146  He    c     0.514355    0.258563    0.470163    0.000000
   147  H     c     0.502292    0.260236    0.473992    0.000000
   148  H     c     0.688142    0.767695    0.703642    0.000000
   149  He    c     0.681122    0.759515    0.710483    0.000000
   150  H     c     0.674102    0.751334    0.717323    0.000000
   151  H     c     0.322553    0.927631    0.194753    0.000000
   152  He    c     0.323184    0.940381    0.194680    0.000000
   153  H     c     0.323816    0.953132    0.194606    0.000000
   154  H     c     0.366628    0.947318    0.814754    0.000000
   155  He    c     0.376324    0.940760    0.809659    0.000000
   156  H     c     0.386021    0.934202    0.804564    0.000000
   157  H     c     0.720128    0.934716    0.966206    0.000000
   158  He    c     0.730357    0.942113    0.968113    0.000000
   159  H     c     0.740587    0.949510    0.970021    0.000000
   160  H     c     0.459401    0.244387    0.700917    0.000000
   161  He    c     0.471742    0.246784    0.698691    0.000000
   162  H     c     0.484082    0.249181    0.696464    0.000000
   163  H     c     0.075246    0.764035    0.754403    0.000000
   164  He    c     0.079301    0.767941    0.765860    0.000000
   165  H     c     0.083356    0.771848    0.777318    0.000000
   166  H     c     0.785066    0.189400    0.841865    0.000000
   167  He    c     0.775277    0.197561    0.842619    0.000000
   168  H     c     0.765488    0.205722    0.843372    0.000000
   169  H     c     0.871898    0.051698    0.419544    0.000000
   170  He    c     0.860503    0.057189    0.417812    0.000000
   171  H     c     0.849108    0.062679    0.416081    0.000000
   172  H     c     0.503984    0.831444    0.430505    0.000000
   173  He    c     0.502871    0.819527    0.426061    0.000000
   174  H     c     0.501758    0.807611    0.421618    0.000000
   175  H     c     0.898821    0.819509    0.681948    0.000000
   176  He    c     0.887445    0.820709    0.687617    0.000000
   177  H     c     0.876070    0.821908    0.693287    0.000000
   178  H     c     0.309639    0.011644    0.905997    0.000000
   179  He    c     0.308050    0.020293    0.896742    0.000000
   180  H     c     0.306460    0.028942    0.887487    0.000000
   181  H     c     0.448474    0.886761    0.052430    0.000000
   182  He    c     0.457367    0.892517    0.059555    0.000000
   183  H     c     0.466260    0.898273    0.066680    0.000000
   184  H     c     0.015812    0.807893    0.956606    0.000000
   185  He    c     0.023405    0.807636    0.946346    0.000000
   186  H     c     0.030998    0.807379    0.936086    0.000000
   187  H     c     0.795886    0.672012    0.793841    0.000000
   188  He    c     0.783970    0.676379    0.795234    0.000000
   189  H     c     0.772054    0.680745    0.796628    0.000000
   190  H     c     0.956060    0.567323    0.318269    0.000000
   191  He    c     0.968050    0.571281    0.316384    0.000000
   192  H     c     0.980040    0.575239    0.314499    0.000000
   193  H     c     0.460665    0.417766    0.209248    0.000000
   194  He    c     0.460105    0.410557    0.198726    0.000000
   195  H     c     0.459544    0.403348    0.188204    0.000000
   196  H     c     0.891519    0.466337    0.899773    0.000000
   197  He    c     0.897484    0.459735    0.908928    0.000000
   198  H     c     0.903449    0.453133    0.918083    0.000000
   199  H     c     0.465203    0.651799    0.664344    0.000000
   200  He    c     0.473210    0.656965    0.655848    0.000000
   201  H     c     0.481217    0.662131    0.647351    0.000000
   202  H     c     0.706790    0.869163    0.368857    0.000000
   203  He    c     0.694647    0.870666    0.372500    0.000000
   204  H     c     0.682504    0.872168    0.376144    0.000000
   205  H     c     0.434632    0.448942    0.050375    0.000000
   206  He    c     0.425924    0.457460    0.046554    0.000000
   207  H     c     0.417216    0.465978    0.042733    0.000000
   208  H     c     0.940746    0.284126    0.503510    0.000000
   209  He    c     0.944491    0.272013    0.502015    0.000000
   210  H     c     0.948235    0.259900    0.500520    0.000000
   211  H     c     0.455410    0.899609    0.665258    0.000000
   212  He    c     0.448086    0.889162    0.664816    0.000000
   213  H     c     0.440761    0.878714    0.664374    0.000000
   214  H     c     0.596039    0.214944    0.880093    0.000000
   215  He    c     0.604496    0.205494    0.878625    0.000000
   216  H     c     0.612953    0.196044    0.877157    0.000000
   217  H     c     0.921930    0.033165    0.081374    0.000000
   218  He    c     0.924630    0.038863    0.070273    0.000000
   219  H     c     0.927329    0.044561    0.059172    0.000000
   220  H     c     0.964848    0.203476    0.424131    0.000000
   221  He    c     0.969691    0.214855    0.427298    0.000000
   222  H     c     0.974535    0.226234    0.430466    0.000000
   223  H     c     0.871971    0.244186    0.715950    0.000000
   224  He    c     0.863884    0.249476    0.707608    0.000000
   225  H     c     0.855796    0.254765    0.699265    0.000000
   226  H     c     0.707003    0.199415    0.780532    0.000000
   227  He    c     0.714949    0.204862    0.788910    0.000000
   228  H     c     0.722895    0.210309    0.797287    0.000000
   229  H     c     0.148858    0.684871    0.897556    0.000000
   230  He    c     0.153474    0.693497    0.889355    0.000000
   231  H     c     0.158091    0.702123    0.881154    0.000000
   232  H     c     0.141454    0.976446    0.350058    0.000000
   233  He    c     0.137821    0.988472    0.352331    0.000000
   234  H     c     0.134189    0.000498    0.354604    0.000000
   235  H     c     0.254110    0.717475    0.422582    0.000000
   236  He    c     0.246635    0.708782    0.428200    0.000000
   237  H     c     0.239161    0.700090    0.433817    0.000000
   238  H     c     0.177999    0.217169    0.780086    0.000000
   239  He    c     0.170485    0.227485    0.780423    0.000000
   240  H     c     0.162971    0.237801    0.780760    0.000000
   241  H     c     0.838957    0.795264    0.784864    0.000000
   242  He    c     0.844709    0.800076    0.774532    0.000000
   243  H     c     0.850460    0.804888    0.764200    0.000000
   244  H     c     0.926889    0.258223    0.990685    0.000000
   245  He    c     0.932563    0.257423    0.979277    0.000000
   246  H     c     0.938237    0.256623    0.967869    0.000000
   247  H     c     0.451569    0.645872    0.568065    0.000000
   248  He    c     0.454130    0.658134    0.570532    0.000000
   249  H     c     0.456692    0.670395    0.572999    0.000000
   250  H     c     0.436797    0.588749    0.806304    0.000000
   251  He    c     0.444546    0.578720    0.804763    0.000000
   252  H     c     0.452295    0.568692    0.803221    0.000000
   253  H     c     0.750556    0.683121    0.879460    0.000000
   254  He    c     0.748941    0.680641    0.891878    0.000000
   255  H     c     0.747325    0.678160    0.904297    0.000000
   256  H     c     0.379510    0.809679    0.862193    0.000000
   257  He    c     0.383650    0.799312    0.868386    0.000000
   258  H     c     0.387791    0.788944    0.874579    0.000000
   259  H     c     0.996779    0.692142    0.923262    0.000000
   260  He    c     0.993848    0.704195    0.926282    0.000000
   261  H     c     0.990917    0.716248    0.929303    0.000000
   262  H     c     0.545446    0.498038    0.511455    0.000000
   263  He    c     0.554324    0.491375    0.505148    0.000000
   264  H     c     0.563201    0.484712    0.498840    0.000000
   265  H     c     0.558319    0.940822    0.425478    0.000000
   266  He    c     0.565835    0.935591    0.434375    0.000000
   267  H     c     0.573350    0.930360    0.443271    0.000000
   268  H     c     0.667538    0.965424    0.328928    0.000000
   269  He    c     0.679579    0.969419    0.327502    0.000000
   270  H     c     0.691620    0.973415    0.326075    0.000000
   271  H     c     0.264311    0.884222    0.913418    0.000000
   272  He    c     0.261801    0.890845    0.902796    0.000000
   273  H     c     0.259291    0.897468    0.892174    0.000000
   274  H     c     0.646740    0.436148    0.132643    0.000000
   275  He    c     0.643028    0.438701    0.120698    0.000000
   276  H     c     0.639315    0.441255    0.108753    0.000000
   277  H     c     0.524203    0.509294    0.634779    0.000000
   278  He    c     0.535356    0.503840    0.631807    0.000000
   279  H     c     0.546510    0.498385    0.628835    0.000000
   280  H     c     0.920775    0.796989    0.994414    0.000000
   281  He    c     0.930875    0.802085    0.000331    0.000000
   282  H     c     0.940974    0.807182    0.006248    0.000000
   283  H     c     0.565532    0.640710    0.080201    0.000000
   284  He    c     0.554398    0.643508    0.085786    0.000000
   285  H     c     0.543264    0.646305    0.091371    0.000000
   286  H     c     0.155696    0.765351    0.437170    0.000000
   287  He    c     0.162373    0.766991    0.447927    0.000000
   288  H     c     0.169049    0.768631    0.458684    0.000000
   289  H     c     0.813739    0.504828    0.994793    0.000000
   290  He    c     0.813385    0.516961    0.990837    0.000000
   291  H     c     0.813030    0.529094    0.986881    0.000000
   292  H     c     0.690822    0.602435    0.753226    0.000000
   293  He    c     0.689457    0.589780    0.752241    0.000000
   294  H     c     0.688091    0.577124    0.751256    0.000000
   295  H     c     0.442153    0.419462    0.969190    0.000000
   296  He    c     0.452410    0.412218    0.971498    0.000000
   297  H     c     0.462666    0.404974    0.973805    0.000000
--------------------------------------------------------------------------------


  Peak dynamic memory used =       2.83 MB 


  Timing analysis for GULP :

--------------------------------------------------------------------------------
  Task / Subroutine                                          Time (Seconds)
--------------------------------------------------------------------------------
  Calculation of real space energy and derivatives                0.2040
  Monte Carlo operations excluding energy                         0.0371
--------------------------------------------------------------------------------
  Total CPU time                                                  0.2499
--------------------------------------------------------------------------------


  Job Finished at 11:50.30  8th July       2020                               

