********************************************************************************
*                       GENERAL UTILITY LATTICE PROGRAM                        *
*                                 Julian Gale                                  *
*                       Curtin Institute for Computation                       *
*                    School of Molecular and Life Sciences                     *
*                    Curtin University, Western Australia                      *
********************************************************************************
* Version = 6.0.0 * Last modified =   7th July 2020                            *
********************************************************************************
*  optimise     - perform optimisation run                                     *
*  conp         - constant pressure calculation                                *
*  property     - calculate properties for final geometry                      *
*  molecule     - molecule option activated, Coulomb subtract within molecule  *
*  fix_molecule - fix atoms of molecule as at the start of the run             *
*  rigid        - molecules will be treated as rigid bodies                    *
*  prt_var      - print list of optimisation variables                         *
********************************************************************************

  Job Started  at 12:01.20  8th July       2020                               

  Number of CPUs =     1

  Host name      = M-A0034725                              


  Total number of configurations input =      1

********************************************************************************
*  Input for Configuration =   1                                               *
********************************************************************************

  Formula = O8N4C24H52                                                  

  Number of irreducible atoms/shells =      22


  Total number atoms/shells =      88

  Dimensionality = 3               :  Bulk   


  Symmetry :

  Crystal family                   :  Monoclinic  
  Crystal class  (Groth - 1921)    :  Monoclinic Prismatic                 

  Space group (centrosymmetric)    :  P 21/C          

  Patterson group                  :  P 2/m    

  Cartesian lattice vectors (Angstroms) :

       16.382000    0.000000    0.000000
        0.000000    4.737000    0.000000
       -2.510802    0.000000    9.583555

  Cell parameters (Angstroms/Degrees):

  a =      16.3820    alpha =  90.0000
  b =       4.7370    beta  = 104.6810
  c =       9.9070    gamma =  90.0000

  Initial cell volume =         743.698551 Angs**3

  Temperature of configuration =   0.00     K 

  Pressure of configuration =         0.000 GPa 

  Fractional coordinates of asymmetric unit :

--------------------------------------------------------------------------------
   No.  Atomic       x           y          z         Charge      Occupancy
        Label      (Frac)      (Frac)     (Frac)        (e)         (Frac)  
--------------------------------------------------------------------------------
      1 O     c    0.066900    0.322800    0.334800    -0.69620    1.000000    
      2 O     c    0.127100    0.043600    0.513600    -0.70690    1.000000    
      3 N     c    0.095000    0.953400    0.146700    -0.58520    1.000000    
      4 C1    c    0.109900    0.113800    0.387200     0.60780    1.000000    
      5 C2    c    0.149600    0.939900    0.291500     0.23750    1.000000    
      6 C2    c    0.237700    0.054000    0.298000    -0.28030    1.000000    
      7 C2    c    0.283200    0.924100    0.197900     0.01960    1.000000    
      8 C2    c    0.370700    0.037700    0.213500     0.12230    1.000000    
      9 C2    c    0.413500    0.931400    0.105300    -0.29660    1.000000    
     10 H1    c    0.102700    0.118200    0.110800     0.39190    1.000000    
     11 H1    c    0.038700    0.933300    0.147500     0.32460    1.000000    
     12 H1    c    0.113200    0.819000    0.094000     0.38030    1.000000    
     13 H2    c    0.151600    0.751000    0.321600     0.08370    1.000000    
     14 H3    c    0.268800    0.034600    0.394900     0.07160    1.000000    
     15 H3    c    0.230900    0.261800    0.277600     0.09220    1.000000    
     16 H3    c    0.251800    0.949300    0.103600     0.00290    1.000000    
     17 H3    c    0.287300    0.718000    0.210800     0.02810    1.000000    
     18 H3    c    0.365000    0.237400    0.203200    -0.00930    1.000000    
     19 H3    c    0.401300    0.011000    0.300100     0.00210    1.000000    
     20 H3    c    0.384100    0.972000    0.004900     0.07120    1.000000    
     21 H3    c    0.418500    0.721000    0.105100     0.06660    1.000000    
     22 H3    c    0.464800    0.003200    0.122100     0.07210    1.000000    
--------------------------------------------------------------------------------



  Molecule list generated from bond lengths :

  Total number of molecules =     4

--------------------------------------------------------------------------------
Molecule No./:  Atoms
Periodicity  :  
--------------------------------------------------------------------------------
     1  0    : O    c     1 O    c     5 N    c     9 C1   c    13 C2   c    17
             : C2   c    21 C2   c    25 C2   c    29 C2   c    33 H1   c    37
             : H1   c    41 H1   c    45 H2   c    49 H3   c    53 H3   c    57
             : H3   c    61 H3   c    65 H3   c    69 H3   c    73 H3   c    77
             : H3   c    81 H3   c    85
     2  0    : O    c     2 O    c     6 N    c    10 C1   c    14 C2   c    18
             : C2   c    22 C2   c    26 C2   c    30 C2   c    34 H1   c    38
             : H1   c    42 H1   c    46 H2   c    50 H3   c    54 H3   c    58
             : H3   c    62 H3   c    66 H3   c    70 H3   c    74 H3   c    78
             : H3   c    82 H3   c    86
     3  0    : O    c     3 O    c     7 N    c    11 C1   c    15 C2   c    19
             : C2   c    23 C2   c    27 C2   c    31 C2   c    35 H1   c    39
             : H1   c    43 H1   c    47 H2   c    51 H3   c    55 H3   c    59
             : H3   c    63 H3   c    67 H3   c    71 H3   c    75 H3   c    79
             : H3   c    83 H3   c    87
     4  0    : O    c     4 O    c     8 N    c    12 C1   c    16 C2   c    20
             : C2   c    24 C2   c    28 C2   c    32 C2   c    36 H1   c    40
             : H1   c    44 H1   c    48 H2   c    52 H3   c    56 H3   c    60
             : H3   c    64 H3   c    68 H3   c    72 H3   c    76 H3   c    80
             : H3   c    84 H3   c    88
--------------------------------------------------------------------------------


********************************************************************************
*  General input information                                                   *
********************************************************************************

  Species output for all configurations : 

--------------------------------------------------------------------------------
  Species    Type    Atomic    Atomic    Charge       Radii (Angs)     Library
                     Number     Mass       (e)     Cova   Ionic  VDW   Symbol
--------------------------------------------------------------------------------
    O        Core        8      16.00  -0.696200   0.730  0.000  1.360          
    N        Core        7      14.01  -0.585200   0.750  0.000  1.480          
    C1       Core        6      12.01   0.607800   0.770  0.000  1.530          
    C2       Core        6      12.01   0.237500   0.770  0.000  1.530          
    H1       Core        1       1.01   0.391900   0.370  0.000  1.080          
    H2       Core        1       1.01   0.083700   0.370  0.000  1.080          
    H3       Core        1       1.01   0.071600   0.370  0.000  1.080          
--------------------------------------------------------------------------------


  Lattice summation method               =    Ewald          (3-D)
                                         =    Parry          (2-D)
                                         =    Saunders et al (1-D)
  Accuracy factor for lattice sums       =   12.000


  Analytic derivatives to be used

  Time limit = Infinity

  Maximum range for interatomic potentials =        15.000000 Angstroms

  Taper potentials to zero over   5.0000 Angstroms using M-D-F

  Intermolecular potentials :

--------------------------------------------------------------------------------
Atom  Types   Potential      Parameter       Value         Units   Cutoffs(Ang)
  1     2                                                            Min /  Max 
--------------------------------------------------------------------------------
O    c O    c Buckingham    Buckingham A     57610.175    eV        0.000 15.000
                            Buckingham rho  0.25252000    Ang       
                            Buckingham C     301.32041    eV*Ang^6  
--------------------------------------------------------------------------------
N    c O    c Buckingham    Buckingham A     74707.310    eV        0.000 15.000
                            Buckingham rho  0.26881000    Ang       
                            Buckingham C     636.74386    eV*Ang^6  
--------------------------------------------------------------------------------
C1   c O    c Buckingham    Buckingham A     61013.573    eV        0.000 15.000
                            Buckingham rho  0.26455000    Ang       
                            Buckingham C     350.07640    eV*Ang^6  
--------------------------------------------------------------------------------
C2   c O    c Buckingham    Buckingham A     37702.167    eV        0.000 15.000
                            Buckingham rho  0.26455000    Ang       
                            Buckingham C     321.48231    eV*Ang^6  
--------------------------------------------------------------------------------
H1   c O    c Buckingham    Buckingham A     3245.3023    eV        0.000 15.000
                            Buckingham rho  0.26595000    Ang       
                            Buckingham C     0.0000000    eV*Ang^6  
--------------------------------------------------------------------------------
H2   c O    c Buckingham    Buckingham A     13213.335    eV        0.000 15.000
                            Buckingham rho  0.26595000    Ang       
                            Buckingham C     141.58874    eV*Ang^6  
--------------------------------------------------------------------------------
H3   c O    c Buckingham    Buckingham A     13213.335    eV        0.000 15.000
                            Buckingham rho  0.26595000    Ang       
                            Buckingham C     141.58874    eV*Ang^6  
--------------------------------------------------------------------------------
N    c N    c Buckingham    Buckingham A     96878.410    eV        0.000 15.000
                            Buckingham rho  0.28735000    Ang       
                            Buckingham C     1345.5535    eV*Ang^6  
--------------------------------------------------------------------------------
C1   c N    c Buckingham    Buckingham A     79120.745    eV        0.000 15.000
                            Buckingham rho  0.28248000    Ang       
                            Buckingham C     739.77398    eV*Ang^6  
--------------------------------------------------------------------------------
C2   c N    c Buckingham    Buckingham A     48891.146    eV        0.000 15.000
                            Buckingham rho  0.28248000    Ang       
                            Buckingham C     679.34955    eV*Ang^6  
--------------------------------------------------------------------------------
H1   c N    c Buckingham    Buckingham A     4208.4199    eV        0.000 15.000
                            Buckingham rho  0.28409000    Ang       
                            Buckingham C     0.0000000    eV*Ang^6  
--------------------------------------------------------------------------------
H2   c N    c Buckingham    Buckingham A     17134.694    eV        0.000 15.000
                            Buckingham rho  0.28409000    Ang       
                            Buckingham C     299.20230    eV*Ang^6  
--------------------------------------------------------------------------------
H3   c N    c Buckingham    Buckingham A     17134.694    eV        0.000 15.000
                            Buckingham rho  0.28409000    Ang       
                            Buckingham C     299.20230    eV*Ang^6  
--------------------------------------------------------------------------------
C1   c C1   c Buckingham    Buckingham A     64618.032    eV        0.000 15.000
                            Buckingham rho  0.27777000    Ang       
                            Buckingham C     406.72149    eV*Ang^6  
--------------------------------------------------------------------------------
C1   c C2   c Buckingham    Buckingham A     39929.473    eV        0.000 15.000
                            Buckingham rho  0.27777000    Ang       
                            Buckingham C     373.50065    eV*Ang^6  
--------------------------------------------------------------------------------
H1   c C1   c Buckingham    Buckingham A     3437.0229    eV        0.000 15.000
                            Buckingham rho  0.27932000    Ang       
                            Buckingham C     0.0000000    eV*Ang^6  
--------------------------------------------------------------------------------
H2   c C1   c Buckingham    Buckingham A     13993.931    eV        0.000 15.000
                            Buckingham rho  0.27932000    Ang       
                            Buckingham C     164.49890    eV*Ang^6  
--------------------------------------------------------------------------------
H3   c C1   c Buckingham    Buckingham A     13993.931    eV        0.000 15.000
                            Buckingham rho  0.27932000    Ang       
                            Buckingham C     164.49890    eV*Ang^6  
--------------------------------------------------------------------------------
C2   c C2   c Buckingham    Buckingham A     24673.652    eV        0.000 15.000
                            Buckingham rho  0.27777000    Ang       
                            Buckingham C     342.99327    eV*Ang^6  
--------------------------------------------------------------------------------
H1   c C2   c Buckingham    Buckingham A     2123.8424    eV        0.000 15.000
                            Buckingham rho  0.27932000    Ang       
                            Buckingham C     0.0000000    eV*Ang^6  
--------------------------------------------------------------------------------
H2   c C2   c Buckingham    Buckingham A     8647.2811    eV        0.000 15.000
                            Buckingham rho  0.27932000    Ang       
                            Buckingham C     151.06270    eV*Ang^6  
--------------------------------------------------------------------------------
H3   c C2   c Buckingham    Buckingham A     8647.2811    eV        0.000 15.000
                            Buckingham rho  0.27932000    Ang       
                            Buckingham C     151.06270    eV*Ang^6  
--------------------------------------------------------------------------------
H1   c H1   c Buckingham    Buckingham A     182.81470    eV        0.000 15.000
                            Buckingham rho  0.28089000    Ang       
                            Buckingham C     0.0000000    eV*Ang^6  
--------------------------------------------------------------------------------
H1   c H2   c Buckingham    Buckingham A     744.33497    eV        0.000 15.000
                            Buckingham rho  0.28089000    Ang       
                            Buckingham C     0.0000000    eV*Ang^6  
--------------------------------------------------------------------------------
H1   c H3   c Buckingham    Buckingham A     744.33497    eV        0.000 15.000
                            Buckingham rho  0.28089000    Ang       
                            Buckingham C     0.0000000    eV*Ang^6  
--------------------------------------------------------------------------------
H2   c H2   c Buckingham    Buckingham A     3030.5798    eV        0.000 15.000
                            Buckingham rho  0.28089000    Ang       
                            Buckingham C     66.531740    eV*Ang^6  
--------------------------------------------------------------------------------
H2   c H3   c Buckingham    Buckingham A     3030.5798    eV        0.000 15.000
                            Buckingham rho  0.28089000    Ang       
                            Buckingham C     66.531740    eV*Ang^6  
--------------------------------------------------------------------------------
H3   c H3   c Buckingham    Buckingham A     3030.5798    eV        0.000 15.000
                            Buckingham rho  0.28089000    Ang       
                            Buckingham C     66.531740    eV*Ang^6  
--------------------------------------------------------------------------------

********************************************************************************
*  Output for configuration   1                                                *
********************************************************************************


  Components of energy : 

--------------------------------------------------------------------------------
  Interatomic potentials     =         -18.39400786 eV    
  Monopole - monopole (real) =          12.85944090 eV    
  Monopole - monopole (recip)=         -21.80533485 eV    
  Monopole - monopole (total)=          -8.94589395 eV    
--------------------------------------------------------------------------------
  Total lattice energy       =         -27.33990181 eV    
--------------------------------------------------------------------------------
  Total lattice energy       =           -2637.8826 kJ/(mole unit cells)
--------------------------------------------------------------------------------

  Optimisation variables and initial values:

--------------------------------------------------------------------------------
     Variable No.       Variable type             Index        Initial value    
--------------------------------------------------------------------------------
             1          X centre of mass                 1        0.203806
             2          Y centre of mass                 1        0.036170
             3          Z centre of mass                 1        0.274280
             4          Quarternion about X              1        0.000000
             5          Quarternion about Y              1        0.000000
             6          Quarternion about Z              1        0.000000
             7          Cell strain                      1        0.000000
             8          Cell strain                      2        0.000000
             9          Cell strain                      3        0.000000
            10          Cell strain                      5        0.000000
--------------------------------------------------------------------------------



  Number of variables =       10

  Maximum number of calculations  =          1000
  Maximum Hessian update interval =            10
  Maximum step size               =   1.000000000
  Maximum parameter tolerance     =   0.000010000
  Maximum function  tolerance     =   0.000010000
  Maximum gradient  tolerance     =   0.001000000
  Maximum gradient  component     =   0.010000000

  Symmetry constrained optimisation

  Cell parameters to be optimised using strains

  Newton-Raphson optimiser to be used

  BFGS hessian update to be used

  Lower half triangular hessian to be used

  Dumpfile to be written after every cycle

  Start of bulk optimisation :

  Cycle:      0 Energy:       -27.339902  Gnorm:    229.522489  CPU:    0.092
  ** Hessian calculated **
  Cycle:      1 Energy:       -38.225712  Gnorm:    123.030544  CPU:    0.159
  ** Hessian calculated **
  Cycle:      2 Energy:       -46.021912  Gnorm:     29.779977  CPU:    0.317
  ** Hessian calculated **
  Cycle:      3 Energy:       -47.968006  Gnorm:      8.362664  CPU:    0.469
  Cycle:      4 Energy:       -50.512717  Gnorm:     12.399888  CPU:    0.548
  Cycle:      5 Energy:       -53.368806  Gnorm:     19.290783  CPU:    0.640
  Cycle:      6 Energy:       -55.016460  Gnorm:     15.138582  CPU:    0.706
  Cycle:      7 Energy:       -57.405029  Gnorm:     22.553884  CPU:    0.784
  Cycle:      8 Energy:       -58.454498  Gnorm:      9.888130  CPU:    0.850
  Cycle:      9 Energy:       -60.028199  Gnorm:     21.133134  CPU:    0.929
  Cycle:     10 Energy:       -61.060531  Gnorm:      8.054204  CPU:    0.998
  Cycle:     11 Energy:       -61.393999  Gnorm:      4.155212  CPU:    1.075
  Cycle:     12 Energy:       -61.577514  Gnorm:      3.678194  CPU:    1.153
  ** Hessian calculated **
  Cycle:     13 Energy:       -61.863854  Gnorm:      2.436262  CPU:    1.318
  Cycle:     14 Energy:       -61.921312  Gnorm:      1.034980  CPU:    1.402
  Cycle:     15 Energy:       -61.951471  Gnorm:      1.020667  CPU:    1.485
  Cycle:     16 Energy:       -61.969514  Gnorm:      0.498080  CPU:    1.568
  Cycle:     17 Energy:       -61.971885  Gnorm:      0.186098  CPU:    1.638
  Cycle:     18 Energy:       -61.972093  Gnorm:      0.029656  CPU:    1.709
  Cycle:     19 Energy:       -61.972111  Gnorm:      0.012898  CPU:    1.779
  Cycle:     20 Energy:       -61.972113  Gnorm:      0.004456  CPU:    1.847


  **** Optimisation achieved ****


  Final energy =     -61.97211259 eV
  Final Gnorm  =       0.00041882

  Components of energy : 

--------------------------------------------------------------------------------
  Interatomic potentials     =         -56.38767581 eV    
  Monopole - monopole (real) =          16.15331273 eV    
  Monopole - monopole (recip)=         -21.73774950 eV    
  Monopole - monopole (total)=          -5.58443678 eV    
--------------------------------------------------------------------------------
  Total lattice energy       =         -61.97211259 eV    
--------------------------------------------------------------------------------
  Total lattice energy       =           -5979.3615 kJ/(mole unit cells)
--------------------------------------------------------------------------------

  Final asymmetric unit coordinates :

--------------------------------------------------------------------------------
   No.  Atomic        x           y           z         Radius
        Label       (Frac)      (Frac)      (Frac)       (Angs) 
--------------------------------------------------------------------------------
     1  O     c     0.062627    0.266840    0.239019    0.000000
     2  O     c     0.163233    0.113378    0.440239    0.000000
     3  N     c     0.099100    0.830806    0.112657    0.000000
     4  C1    c     0.127197    0.110930    0.314217    0.000000
     5  C2    c     0.169975    0.914499    0.247646    0.000000
     6  C2    c     0.249617    0.068963    0.237182    0.000000
     7  C2    c     0.294304    0.915550    0.160666    0.000000
     8  C2    c     0.374357    0.073730    0.158711    0.000000
     9  C2    c     0.413668    0.937853    0.071643    0.000000
    10  H1    c     0.090211   -0.024172    0.057659    0.000000
    11  H1    c     0.044653    0.785518    0.117011    0.000000
    12  H1    c     0.121994    0.683627    0.081125    0.000000
    13  H2    c     0.189770    0.747885    0.300260    0.000000
    14  H3    c     0.292429    0.112426    0.328970    0.000000
    15  H3    c     0.224614    0.256355    0.191162    0.000000
    16  H3    c     0.251022    0.878826    0.070533    0.000000
    17  H3    c     0.315686    0.724850    0.199561    0.000000
    18  H3    c     0.352153    0.258784    0.123092    0.000000
    19  H3    c     0.416138    0.104844    0.241920    0.000000
    20  H3    c     0.370538    0.913928    0.973804    0.000000
    21  H3    c     0.434882    0.736977    0.098947    0.000000
    22  H3    c     0.461017    0.039375    0.076907    0.000000
--------------------------------------------------------------------------------

  Final Cartesian lattice vectors (Angstroms) :

       16.106600    0.000000   -1.856793
        0.000000    4.672669    0.000000
       -3.653462    0.000000   10.456905


  Final cell parameters and derivatives :

--------------------------------------------------------------------------------
       a           16.213273 Angstrom     dE/de1(xx)     0.001182 eV/strain
       b            4.672669 Angstrom     dE/de2(yy)    -0.000210 eV/strain
       c           11.076762 Angstrom     dE/de3(zz)    -0.001261 eV/strain
       alpha       90.000000 Degrees      dE/de4(yz)     0.000000 eV/strain
       beta       115.834645 Degrees      dE/de5(xz)     0.000054 eV/strain
       gamma       90.000000 Degrees      dE/de6(xy)     0.000000 eV/strain
--------------------------------------------------------------------------------

  Primitive cell volume =           755.297133 Angs**3

  Density of cell =      1.153804 g/cm**3

  Non-primitive cell volume =           755.297133 Angs**3


  Final internal derivatives :

--------------------------------------------------------------------------------
   No.  Atomic          a             b             c           Radius
        Label          (eV)          (eV)          (eV)        (eV/Angs)
--------------------------------------------------------------------------------
--------------------------------------------------------------------------------
  Maximum abs         0.000000      0.000000      0.000000      0.000000
--------------------------------------------------------------------------------

  Final derivatives for centre of mass of rigid molecules: 

--------------------------------------------------------------------------------
   Molecule             a             b             c       
                       (eV)          (eV)          (eV)     
--------------------------------------------------------------------------------
      1              -0.003304     -0.000820     -0.000816
--------------------------------------------------------------------------------

  Final derivatives for quarternions of rigid molecules: 

--------------------------------------------------------------------------------
   Molecule             Q1            Q2            Q3      
                       (eV)          (eV)          (eV)     
--------------------------------------------------------------------------------
      1              -0.001148     -0.000950     -0.000178
--------------------------------------------------------------------------------

  Born effective charge tensors : 

-------------------------------------------------------------------------------
  Atom             x           y             z
-------------------------------------------------------------------------------
    1 O     x      -0.6962      0.0000      0.0000
            y       0.0000     -0.6962      0.0000
            z       0.0000      0.0000     -0.6962
-------------------------------------------------------------------------------
    2 O     x      -0.7069      0.0000      0.0000
            y       0.0000     -0.7069      0.0000
            z       0.0000      0.0000     -0.7069
-------------------------------------------------------------------------------
    3 N     x      -0.5852      0.0000      0.0000
            y       0.0000     -0.5852      0.0000
            z       0.0000      0.0000     -0.5852
-------------------------------------------------------------------------------
    4 C1    x       0.6078      0.0000      0.0000
            y       0.0000      0.6078      0.0000
            z       0.0000      0.0000      0.6078
-------------------------------------------------------------------------------
    5 C2    x       0.2375      0.0000      0.0000
            y       0.0000      0.2375      0.0000
            z       0.0000      0.0000      0.2375
-------------------------------------------------------------------------------
    6 C2    x      -0.2803      0.0000      0.0000
            y       0.0000     -0.2803      0.0000
            z       0.0000      0.0000     -0.2803
-------------------------------------------------------------------------------
    7 C2    x       0.0196      0.0000      0.0000
            y       0.0000      0.0196      0.0000
            z       0.0000      0.0000      0.0196
-------------------------------------------------------------------------------
    8 C2    x       0.1223      0.0000      0.0000
            y       0.0000      0.1223      0.0000
            z       0.0000      0.0000      0.1223
-------------------------------------------------------------------------------
    9 C2    x      -0.2966      0.0000      0.0000
            y       0.0000     -0.2966      0.0000
            z       0.0000      0.0000     -0.2966
-------------------------------------------------------------------------------
   10 H1    x       0.3919      0.0000      0.0000
            y       0.0000      0.3919      0.0000
            z       0.0000      0.0000      0.3919
-------------------------------------------------------------------------------
   11 H1    x       0.3246      0.0000      0.0000
            y       0.0000      0.3246      0.0000
            z       0.0000      0.0000      0.3246
-------------------------------------------------------------------------------
   12 H1    x       0.3803      0.0000      0.0000
            y       0.0000      0.3803      0.0000
            z       0.0000      0.0000      0.3803
-------------------------------------------------------------------------------
   13 H2    x       0.0837      0.0000      0.0000
            y       0.0000      0.0837      0.0000
            z       0.0000      0.0000      0.0837
-------------------------------------------------------------------------------
   14 H3    x       0.0716      0.0000      0.0000
            y       0.0000      0.0716      0.0000
            z       0.0000      0.0000      0.0716
-------------------------------------------------------------------------------
   15 H3    x       0.0922      0.0000      0.0000
            y       0.0000      0.0922      0.0000
            z       0.0000      0.0000      0.0922
-------------------------------------------------------------------------------
   16 H3    x       0.0029      0.0000      0.0000
            y       0.0000      0.0029      0.0000
            z       0.0000      0.0000      0.0029
-------------------------------------------------------------------------------
   17 H3    x       0.0281      0.0000      0.0000
            y       0.0000      0.0281      0.0000
            z       0.0000      0.0000      0.0281
-------------------------------------------------------------------------------
   18 H3    x      -0.0093      0.0000      0.0000
            y       0.0000     -0.0093      0.0000
            z       0.0000      0.0000     -0.0093
-------------------------------------------------------------------------------
   19 H3    x       0.0021      0.0000      0.0000
            y       0.0000      0.0021      0.0000
            z       0.0000      0.0000      0.0021
-------------------------------------------------------------------------------
   20 H3    x       0.0712      0.0000      0.0000
            y       0.0000      0.0712      0.0000
            z       0.0000      0.0000      0.0712
-------------------------------------------------------------------------------
   21 H3    x       0.0666      0.0000      0.0000
            y       0.0000      0.0666      0.0000
            z       0.0000      0.0000      0.0666
-------------------------------------------------------------------------------
   22 H3    x       0.0721      0.0000      0.0000
            y       0.0000      0.0721      0.0000
            z       0.0000      0.0000      0.0721
-------------------------------------------------------------------------------




  Elastic Constant Matrix: (Units=GPa)

-------------------------------------------------------------------------------
  Indices      1         2         3         4         5         6    
-------------------------------------------------------------------------------
       1    400.5911   63.5216  204.4762   -0.0000  -65.7732    0.0000
       2     63.5216  316.1048  105.3617    0.0000  -11.7943    0.0000
       3    204.4762  105.3617  288.1778   -0.0000   -3.1236    0.0000
       4     -0.0000    0.0000   -0.0000   55.2694    0.0000  -12.7065
       5    -65.7732  -11.7943   -3.1236    0.0000   95.1681    0.0000
       6      0.0000    0.0000    0.0000  -12.7065    0.0000   33.9141
-------------------------------------------------------------------------------


  Elastic Compliance Matrix: (Units=1/GPa)

-------------------------------------------------------------------------------
  Indices      1         2         3         4         5         6    
-------------------------------------------------------------------------------
       1    0.004721  0.000313 -0.003430 -0.000000  0.003189 -0.000000
       2    0.000313  0.003639 -0.001546 -0.000000  0.000617 -0.000000
       3   -0.003430 -0.001546  0.006443  0.000000 -0.002351  0.000000
       4   -0.000000 -0.000000  0.000000  0.019799 -0.000000  0.007418
       5    0.003189  0.000617 -0.002351 -0.000000  0.012711 -0.000000
       6   -0.000000 -0.000000  0.000000  0.007418 -0.000000  0.032265
-------------------------------------------------------------------------------

  Mechanical properties :

-------------------------------------------------------------------------------
  Convention :                    Reuss         Voigt         Hill
-------------------------------------------------------------------------------
  Bulk  Modulus (GPa)     =     182.53559     194.62140     188.57850
  Shear Modulus (GPa)     =      55.10901      78.97128      67.04014
-------------------------------------------------------------------------------
  Velocity S-wave (km/s)  =       6.91107       8.27311       7.62257
  Velocity P-wave (km/s)  =      14.89588      16.12257      15.52134
-------------------------------------------------------------------------------
  Compressibility (1/GPa) =    0.00547838
-------------------------------------------------------------------------------
  Stress axis :                     x             y             z
-------------------------------------------------------------------------------
  Youngs Moduli (GPa)     =     211.82572     274.80912     155.19582
-------------------------------------------------------------------------------
  Poissons Ratio (x)      =                    -0.08615       0.53228
  Poissons Ratio (y)      =      -0.06641                     0.23996
  Poissons Ratio (z)      =       0.72651       0.42491
-------------------------------------------------------------------------------


  Piezoelectric Strain Matrix: (Units=C/m**2)

-------------------------------------------------------------------------------
  Indices      1         2         3         4         5         6    
-------------------------------------------------------------------------------
       x     0.00000   0.00000  -0.00000   0.00000   0.00000  -0.00000
       y     0.00000  -0.00000  -0.00000  -0.00000   0.00000   0.00000
       z     0.00000  -0.00000   0.00000  -0.00000  -0.00000  -0.00000
-------------------------------------------------------------------------------


  Piezoelectric Stress Matrix: (Units=10**-11 C/N)

-------------------------------------------------------------------------------
  Indices      1         2         3         4         5         6    
-------------------------------------------------------------------------------
       x     0.00000   0.00000  -0.00000   0.00000   0.00000  -0.00000
       y     0.00000  -0.00000  -0.00000  -0.00000   0.00000   0.00000
       z    -0.00000  -0.00000   0.00000  -0.00000  -0.00000  -0.00000
-------------------------------------------------------------------------------


  Static dielectric constant tensor : 

-------------------------------------------------------------------------------
              x         y         z
-------------------------------------------------------------------------------
       x     1.00000  -0.00000  -0.00000
       y    -0.00000   1.00000  -0.00000
       z    -0.00000  -0.00000   1.00000
--------------------------------------------------------------------------------

  Static refractive indices : 

-------------------------------------------------------------------------------
    1 =    1.00000      2 =    1.00000      3 =    1.00000
-------------------------------------------------------------------------------


  Time to end of optimisation =       2.0565 seconds


  Peak dynamic memory used =       3.67 MB 


  Timing analysis for GULP :

--------------------------------------------------------------------------------
  Task / Subroutine                                          Time (Seconds)
--------------------------------------------------------------------------------
  Calculation of reciprocal space energy and derivatives          0.2026
  Calculation of real space energy and derivatives                0.9592
  Calculation of real space energy using symmetry                 0.8577
  Calculation of molecules and connectivity                       0.0033
  Calculation and manipulation of Hessian matrix                  0.0004
  Calculation of matrix inversion                                 0.0001
  Symmetry generation of equivalent positions                     0.0025
  Global summation overhead                                       0.0002
--------------------------------------------------------------------------------
  Total CPU time                                                  2.0565
--------------------------------------------------------------------------------


  Dump file written as example75.res


  Job Finished at 12:01.22  8th July       2020                               

