********************************************************************************
*                       GENERAL UTILITY LATTICE PROGRAM                        *
*                                 Julian Gale                                  *
*                       Curtin Institute for Computation                       *
*                    School of Molecular and Life Sciences                     *
*                    Curtin University, Western Australia                      *
********************************************************************************
* Version = 6.0.0 * Last modified =   7th July 2020                            *
********************************************************************************
*  optimise     - perform optimisation run                                     *
*  conp         - constant pressure calculation                                *
*  c6           - use real and reciprocal space sum for C6 terms               *
*  property     - calculate properties for final geometry                      *
*  molecule     - molecule option activated, Coulomb subtract within molecule  *
********************************************************************************
* example of a molecular crystal - urea                                        *
********************************************************************************


  Job Started  at 11:35.07  8th July       2020                               

  Number of CPUs =     1

  Host name      = M-A0034725                              


  Total number of configurations input =      1

********************************************************************************
*  Input for Configuration =   1                                               *
********************************************************************************

  Formula = C2O2N4H8                                                    

  Number of irreducible atoms/shells =      16


  Total number atoms/shells =      16

  Dimensionality = 3               :  Bulk   



  Cartesian lattice vectors (Angstroms) :

        5.550830    0.000000    0.000000
        0.000019    5.550830    0.000000
        0.000003   -0.000003    4.695612

  Cell parameters (Angstroms/Degrees):

  a =       5.5508    alpha =  90.0000
  b =       5.5508    beta  =  90.0000
  c =       4.6956    gamma =  89.9998

  Initial cell volume =         144.679853 Angs**3

  Temperature of configuration =   0.00     K 

  Pressure of configuration =         0.000 GPa 

  Fractional coordinates of asymmetric unit :

--------------------------------------------------------------------------------
   No.  Atomic       x           y          z         Charge      Occupancy
        Label      (Frac)      (Frac)     (Frac)        (e)         (Frac)  
--------------------------------------------------------------------------------
      1 C     c    0.000000    0.500000    0.326000     0.38000    1.000000    
      2 C     c    0.499999 *  0.000001 *  0.615026 *   0.38000    1.000000    
      3 O     c    0.000000 *  0.500000 *  0.588166 *  -0.38000    1.000000    
      4 O     c    0.500000 *  1.000000 *  0.352857 *  -0.38000    1.000000    
      5 N     c    0.142932 *  0.642932 *  0.181010 *  -0.83000    1.000000    
      6 N     c    0.857068 *  0.357068 *  0.181010 *  -0.83000    1.000000    
      7 N     c    0.642933 *  0.857067 *  0.760014 *  -0.83000    1.000000    
      8 N     c    0.357068 *  0.142932 *  0.760013 *  -0.83000    1.000000    
      9 H     c    0.261677 *  0.761677 *  0.277315 *   0.41500    1.000000    
     10 H     c    0.738323 *  0.238323 *  0.277315 *   0.41500    1.000000    
     11 H     c    0.761678 *  0.738322 *  0.663710 *   0.41500    1.000000    
     12 H     c    0.238322 *  0.261678 *  0.663710 *   0.41500    1.000000    
     13 H     c    0.137859 *  0.637859 *  0.960432 *   0.41500    1.000000    
     14 H     c    0.862141 *  0.362141 *  0.960432 *   0.41500    1.000000    
     15 H     c    0.637858 *  0.862142 *  0.980591 *   0.41500    1.000000    
     16 H     c    0.362141 *  0.137859 *  0.980592 *   0.41500    1.000000    
--------------------------------------------------------------------------------



  Molecule list generated from bond lengths :

  Total number of molecules =     2

--------------------------------------------------------------------------------
Molecule No./:  Atoms
Periodicity  :  
--------------------------------------------------------------------------------
     1  0    : C    c     1 O    c     3 N    c     5 N    c     6 H    c     9
             : H    c    10 H    c    13 H    c    14
     2  0    : C    c     2 O    c     4 N    c     7 N    c     8 H    c    11
             : H    c    12 H    c    15 H    c    16
--------------------------------------------------------------------------------


********************************************************************************
*  General input information                                                   *
********************************************************************************

  Species output for all configurations : 

--------------------------------------------------------------------------------
  Species    Type    Atomic    Atomic    Charge       Radii (Angs)     Library
                     Number     Mass       (e)     Cova   Ionic  VDW   Symbol
--------------------------------------------------------------------------------
    C        Core        6      12.01   0.380000   0.770  0.000  1.530          
    O        Core        8      16.00  -0.380000   0.730  0.000  1.360          
    N        Core        7      14.01  -0.830000   0.750  0.000  1.480          
    H        Core        1       1.01   0.415000   0.370  0.000  1.080          
--------------------------------------------------------------------------------


  Lattice summation method               =    Ewald          (3-D)
                                         =    Parry          (2-D)
                                         =    Saunders et al (1-D)
  Accuracy factor for lattice sums       =   12.000


  Analytic derivatives to be used

  Time limit = Infinity

  Maximum range for interatomic potentials =    100000.000000 Angstroms

  C6 terms to be calculated in real and reciprocal space 

  Intramolecular potentials :

--------------------------------------------------------------------------------
Atom  Types   Potential      Parameter       Value         Units   Cutoffs(Ang)
  1     2                                                            Min /  Max 
--------------------------------------------------------------------------------
C    c O    c Morse         Morse  De        6.2880000    eV        0.000  1.600
                            Morse  a0        2.0600000    Ang^-1    
                            Morse  r0        1.2300000    Ang       
--------------------------------------------------------------------------------
C    c N    c Morse         Morse  De        4.2060000    eV        0.000  1.600
                            Morse  a0        2.0000000    Ang^-1    
                            Morse  r0        1.3200000    Ang       
--------------------------------------------------------------------------------
H    c N    c Morse         Morse  De        3.8160000    eV        0.000  1.600
                            Morse  a0        2.2800000    Ang^-1    
                            Morse  r0        1.0260000    Ang       
--------------------------------------------------------------------------------

  Intermolecular potentials :

--------------------------------------------------------------------------------
Atom  Types   Potential      Parameter       Value         Units   Cutoffs(Ang)
  1     2                                                            Min /  Max 
--------------------------------------------------------------------------------
C    c O    c Lennard       Lennard-Jones A  39031.570    eV*Ang^m  0.000 40.000
                            Lennard-Jones B  35.266000    eV*Ang^n  
                            Exponent m        12          None
                            Exponent n         6          None
--------------------------------------------------------------------------------
C    c N    c Lennard       Lennard-Jones A  112494.67    eV*Ang^m  0.000 40.000
                            Lennard-Jones B  55.387000    eV*Ang^n  
                            Exponent m        12          None
                            Exponent n         6          None
--------------------------------------------------------------------------------
O    c O    c Lennard       Lennard-Jones A  11833.864    eV*Ang^m  0.000 40.000
                            Lennard-Jones B  21.633000    eV*Ang^n  
                            Exponent m        12          None
                            Exponent n         6          None
--------------------------------------------------------------------------------
N    c O    c Lennard       Lennard-Jones A  34106.919    eV*Ang^m  0.000 40.000
                            Lennard-Jones B  33.977000    eV*Ang^n  
                            Exponent m        12          None
                            Exponent n         6          None
--------------------------------------------------------------------------------
N    c N    c Lennard       Lennard-Jones A  98301.108    eV*Ang^m  0.000 40.000
                            Lennard-Jones B  53.362000    eV*Ang^n  
                            Exponent m        12          None
                            Exponent n         6          None
--------------------------------------------------------------------------------
C    c C    c Lennard       Lennard-Jones A  128737.61    eV*Ang^m  0.000 40.000
                            Lennard-Jones B  57.488000    eV*Ang^n  
                            Exponent m        12          None
                            Exponent n         6          None
--------------------------------------------------------------------------------

  General Three-body potentials :

--------------------------------------------------------------------------------
  Atoms       Potential      Parameter       Value         Units   Cutoffs(Ang)
  1 / 2 / 3                                                          Min /  Max 
--------------------------------------------------------------------------------
C     core    Harmonic      Three-body cnst  5.8970000    eV*rad^-2 0.000  1.600
N     core                  Three-body angl  121.00000    degrees   0.000  1.600
O     core                  Three-body k4    0.0000000    eV*rad^-4 0.000  3.000
                            Three-body k3    0.0000000    eV*rad^-3 
--------------------------------------------------------------------------------
N     core    Harmonic      Three-body cnst  3.2520000    eV*rad^-2 0.000  1.400
H     core                  Three-body angl  120.00000    degrees   0.000  1.600
C     core                  Three-body k4    0.0000000    eV*rad^-4 0.000  2.600
                            Three-body k3    0.0000000    eV*rad^-3 
--------------------------------------------------------------------------------
N     core    Harmonic      Three-body cnst  2.8620000    eV*rad^-2 0.000  1.400
H     core                  Three-body angl  120.00000    degrees   0.000  1.400
H     core                  Three-body k4    0.0000000    eV*rad^-4 0.000  2.300
                            Three-body k3    0.0000000    eV*rad^-3 
--------------------------------------------------------------------------------
C     core    Harmonic      Three-body cnst  8.8460000    eV*rad^-2 0.000  1.600
N     core                  Three-body angl  118.00000    degrees   0.000  1.600
N     core                  Three-body k4    0.0000000    eV*rad^-4 0.000  2.800
                            Three-body k3    0.0000000    eV*rad^-3 
--------------------------------------------------------------------------------

  General Four-body potentials :

--------------------------------------------------------------------------------
  Atoms       Potential      Parameter       Value         Units   Cutoffs(Ang)
  1 - 4                                                             Min /  Max 
--------------------------------------------------------------------------------
O     core    Standard      Torsional const 0.26020000    eV        0.000  1.400
C     core Phase = -  2                                             0.000  1.400
N     core                                                          0.000  1.300
H     core                                                          0.000  0.000
--------------------------------------------------------------------------------
N     core    Standard      Torsional const 0.21700000E-02eV        0.000  1.600
C     core Phase = -  2                                             0.000  1.600
N     core                                                          0.000  1.300
H     core                                                          0.000  0.000
--------------------------------------------------------------------------------
O     core    Standard      Torsional const 0.43400000    eV        0.000  1.600
C     core Phase = -  2                                             0.000  1.600
N     core                                                          0.000  3.000
N     core                                                          0.000  0.000
--------------------------------------------------------------------------------

********************************************************************************
*  Output for configuration   1                                                *
********************************************************************************


  Components of energy : 

--------------------------------------------------------------------------------
  Interatomic potentials     =         -58.75442794 eV    
  Three-body potentials      =           0.02546153 eV    
  Four-body potentials       =           0.00000000 eV    
  Improper torsions          =           0.00000000 eV    
  Out of plane potentials    =           0.00000000 eV    
  Monopole - monopole (real) =          14.57668908 eV    
  Monopole - monopole (recip)=         -16.23436973 eV    
  Monopole - monopole (total)=          -1.65768064 eV    
  Dispersion (real+recip)    =          -1.69282023 eV    
--------------------------------------------------------------------------------
  Total lattice energy       =         -62.07946728 eV    
--------------------------------------------------------------------------------
  Total lattice energy       =           -5989.7196 kJ/(mole unit cells)
--------------------------------------------------------------------------------


  Number of variables =       51

  Maximum number of calculations  =          1000
  Maximum Hessian update interval =            10
  Maximum step size               =   1.000000000
  Maximum parameter tolerance     =   0.000010000
  Maximum function  tolerance     =   0.000010000
  Maximum gradient  tolerance     =   0.001000000
  Maximum gradient  component     =   0.010000000

  Symmetry not applied to optimisation

  Cell parameters to be optimised using strains

  Newton-Raphson optimiser to be used

  BFGS hessian update to be used

  Lower half triangular hessian to be used

  Start of bulk optimisation :

  Cycle:      0 Energy:       -62.079467  Gnorm:      0.000221  CPU:    0.025


  **** Optimisation achieved ****


  Final energy =     -62.07946728 eV
  Final Gnorm  =       0.00022063

  Components of energy : 

--------------------------------------------------------------------------------
  Interatomic potentials     =         -58.75442794 eV    
  Three-body potentials      =           0.02546153 eV    
  Four-body potentials       =           0.00000000 eV    
  Improper torsions          =           0.00000000 eV    
  Out of plane potentials    =           0.00000000 eV    
  Monopole - monopole (real) =          14.57668908 eV    
  Monopole - monopole (recip)=         -16.23436973 eV    
  Monopole - monopole (total)=          -1.65768064 eV    
  Dispersion (real+recip)    =          -1.69282023 eV    
--------------------------------------------------------------------------------
  Total lattice energy       =         -62.07946728 eV    
--------------------------------------------------------------------------------
  Total lattice energy       =           -5989.7196 kJ/(mole unit cells)
--------------------------------------------------------------------------------

  Final fractional coordinates of atoms :

--------------------------------------------------------------------------------
   No.  Atomic        x           y          z          Radius
        Label       (Frac)      (Frac)     (Frac)       (Angs) 
--------------------------------------------------------------------------------
     1  C     c     0.000000    0.500000    0.326000    0.000000
     2  C     c     0.499999    0.000001    0.615026    0.000000
     3  O     c     0.000000    0.500000    0.588166    0.000000
     4  O     c     0.500000    1.000000    0.352857    0.000000
     5  N     c     0.142932    0.642932    0.181010    0.000000
     6  N     c     0.857068    0.357068    0.181010    0.000000
     7  N     c     0.642933    0.857067    0.760014    0.000000
     8  N     c     0.357068    0.142932    0.760013    0.000000
     9  H     c     0.261677    0.761677    0.277315    0.000000
    10  H     c     0.738323    0.238323    0.277315    0.000000
    11  H     c     0.761678    0.738322    0.663710    0.000000
    12  H     c     0.238322    0.261678    0.663710    0.000000
    13  H     c     0.137859    0.637859    0.960432    0.000000
    14  H     c     0.862141    0.362141    0.960432    0.000000
    15  H     c     0.637858    0.862142    0.980591    0.000000
    16  H     c     0.362141    0.137859    0.980592    0.000000
--------------------------------------------------------------------------------

  Final Cartesian lattice vectors (Angstroms) :

        5.550830    0.000000    0.000000
        0.000019    5.550830    0.000000
        0.000003   -0.000003    4.695612


  Final cell parameters and derivatives :

--------------------------------------------------------------------------------
       a            5.550830 Angstrom     dE/de1(xx)     0.004526 eV/strain
       b            5.550830 Angstrom     dE/de2(yy)     0.004526 eV/strain
       c            4.695612 Angstrom     dE/de3(zz)    -0.001151 eV/strain
       alpha       90.000038 Degrees      dE/de4(yz)    -0.000266 eV/strain
       beta        89.999963 Degrees      dE/de5(xz)     0.000276 eV/strain
       gamma       89.999803 Degrees      dE/de6(xy)     0.000089 eV/strain
--------------------------------------------------------------------------------

  Primitive cell volume =           144.679853 Angs**3

  Density of cell =      1.378909 g/cm**3

  Non-primitive cell volume =           144.679853 Angs**3


  Final internal derivatives :

--------------------------------------------------------------------------------
   No.  Atomic          a             b             c           Radius
        Label          (eV)          (eV)          (eV)        (eV/Angs)
--------------------------------------------------------------------------------
      1 C     c       0.000000      0.000000      0.000000      0.000000
      2 C     c      -0.002947      0.002942      0.001573      0.000000
      3 O     c      -0.000083      0.000075      0.001027      0.000000
      4 O     c       0.000406     -0.000399     -0.004704      0.000000
      5 N     c      -0.000468     -0.000407     -0.001347      0.000000
      6 N     c       0.000309      0.000369     -0.001308      0.000000
      7 N     c       0.001905     -0.001900      0.000233      0.000000
      8 N     c       0.002657     -0.002656     -0.000544      0.000000
      9 H     c      -0.000953     -0.000951      0.000368      0.000000
     10 H     c       0.001011      0.001015      0.000337      0.000000
     11 H     c      -0.001615      0.001614      0.000033      0.000000
     12 H     c       0.000151     -0.000150     -0.000576      0.000000
     13 H     c       0.000034      0.000003     -0.001015      0.000000
     14 H     c       0.000009     -0.000023     -0.001025      0.000000
     15 H     c      -0.000445      0.000444      0.000971      0.000000
     16 H     c      -0.000023      0.000023      0.001363      0.000000
--------------------------------------------------------------------------------
  Maximum abs         0.002947      0.002942      0.004704      0.000000
--------------------------------------------------------------------------------


  Born effective charge tensors : 

-------------------------------------------------------------------------------
  Atom             x           y             z
-------------------------------------------------------------------------------
    1 C     x       0.3800      0.0000      0.0000
            y       0.0000      0.3800      0.0000
            z       0.0000      0.0000      0.3800
-------------------------------------------------------------------------------
    2 C     x       0.3800      0.0000      0.0000
            y       0.0000      0.3800      0.0000
            z       0.0000      0.0000      0.3800
-------------------------------------------------------------------------------
    3 O     x      -0.3800      0.0000      0.0000
            y       0.0000     -0.3800      0.0000
            z       0.0000      0.0000     -0.3800
-------------------------------------------------------------------------------
    4 O     x      -0.3800      0.0000      0.0000
            y       0.0000     -0.3800      0.0000
            z       0.0000      0.0000     -0.3800
-------------------------------------------------------------------------------
    5 N     x      -0.8300      0.0000      0.0000
            y       0.0000     -0.8300      0.0000
            z       0.0000      0.0000     -0.8300
-------------------------------------------------------------------------------
    6 N     x      -0.8300      0.0000      0.0000
            y       0.0000     -0.8300      0.0000
            z       0.0000      0.0000     -0.8300
-------------------------------------------------------------------------------
    7 N     x      -0.8300      0.0000      0.0000
            y       0.0000     -0.8300      0.0000
            z       0.0000      0.0000     -0.8300
-------------------------------------------------------------------------------
    8 N     x      -0.8300      0.0000      0.0000
            y       0.0000     -0.8300      0.0000
            z       0.0000      0.0000     -0.8300
-------------------------------------------------------------------------------
    9 H     x       0.4150      0.0000      0.0000
            y       0.0000      0.4150      0.0000
            z       0.0000      0.0000      0.4150
-------------------------------------------------------------------------------
   10 H     x       0.4150      0.0000      0.0000
            y       0.0000      0.4150      0.0000
            z       0.0000      0.0000      0.4150
-------------------------------------------------------------------------------
   11 H     x       0.4150      0.0000      0.0000
            y       0.0000      0.4150      0.0000
            z       0.0000      0.0000      0.4150
-------------------------------------------------------------------------------
   12 H     x       0.4150      0.0000      0.0000
            y       0.0000      0.4150      0.0000
            z       0.0000      0.0000      0.4150
-------------------------------------------------------------------------------
   13 H     x       0.4150      0.0000      0.0000
            y       0.0000      0.4150      0.0000
            z       0.0000      0.0000      0.4150
-------------------------------------------------------------------------------
   14 H     x       0.4150      0.0000      0.0000
            y       0.0000      0.4150      0.0000
            z       0.0000      0.0000      0.4150
-------------------------------------------------------------------------------
   15 H     x       0.4150      0.0000      0.0000
            y       0.0000      0.4150      0.0000
            z       0.0000      0.0000      0.4150
-------------------------------------------------------------------------------
   16 H     x       0.4150      0.0000      0.0000
            y       0.0000      0.4150      0.0000
            z       0.0000      0.0000      0.4150
-------------------------------------------------------------------------------




  Elastic Constant Matrix: (Units=GPa)

-------------------------------------------------------------------------------
  Indices      1         2         3         4         5         6    
-------------------------------------------------------------------------------
       1     17.0408   17.0134   11.5358    0.0003    0.0001   -0.0004
       2     17.0134   17.0408   11.5358   -0.0001   -0.0003   -0.0005
       3     11.5358   11.5358   68.8514   -0.0000    0.0000   -0.0004
       4      0.0003   -0.0001   -0.0000    5.1186    0.0006   -0.0001
       5      0.0001   -0.0003    0.0000    0.0006    5.1186    0.0001
       6     -0.0004   -0.0005   -0.0004   -0.0001    0.0001   22.1286
-------------------------------------------------------------------------------


  Elastic Compliance Matrix: (Units=1/GPa)

-------------------------------------------------------------------------------
  Indices      1         2         3         4         5         6    
-------------------------------------------------------------------------------
       1   18.249133-18.216008 -0.005550 -0.001433 -0.001489 -0.000125
       2  -18.216008 18.249133 -0.005550  0.001431  0.001490  0.000126
       3   -0.005550 -0.005550  0.016384  0.000000 -0.000000  0.000000
       4   -0.001433  0.001431  0.000000  0.195364 -0.000022  0.000001
       5   -0.001489  0.001490 -0.000000 -0.000022  0.195364 -0.000001
       6   -0.000125  0.000126  0.000000  0.000001 -0.000001  0.045190
-------------------------------------------------------------------------------

  Mechanical properties :

-------------------------------------------------------------------------------
  Convention :                    Reuss         Voigt         Hill
-------------------------------------------------------------------------------
  Bulk  Modulus (GPa)     =      16.54696      20.34476      18.44586
  Shear Modulus (GPa)     =       0.06810      10.66306       5.36558
-------------------------------------------------------------------------------
  Velocity S-wave (km/s)  =       0.22223       2.78082       1.97261
  Velocity P-wave (km/s)  =       3.47360       5.00648       4.30876
-------------------------------------------------------------------------------
  Compressibility (1/GPa) =    0.06043407
-------------------------------------------------------------------------------
  Stress axis :                     x             y             z
-------------------------------------------------------------------------------
  Youngs Moduli (GPa)     =       0.05480       0.05480      61.03594
-------------------------------------------------------------------------------
  Poissons Ratio (x)      =                     0.99818       0.33875
  Poissons Ratio (y)      =       0.99818                     0.33875
  Poissons Ratio (z)      =       0.00030       0.00030
-------------------------------------------------------------------------------


  Piezoelectric Strain Matrix: (Units=C/m**2)

-------------------------------------------------------------------------------
  Indices      1         2         3         4         5         6    
-------------------------------------------------------------------------------
       x     0.00006  -0.00004   0.00005   1.48767  -0.00010  -0.00001
       y     0.00004  -0.00007  -0.00005  -0.00011   1.48767   0.00001
       z    -0.00001  -0.00001  -0.00001  -0.00002   0.00002   0.19213
-------------------------------------------------------------------------------


  Piezoelectric Stress Matrix: (Units=10**-11 C/N)

-------------------------------------------------------------------------------
  Indices      1         2         3         4         5         6    
-------------------------------------------------------------------------------
       x    -0.03083   0.03067   0.00011  29.06367  -0.00529   0.00010
       y    -0.02136   0.02152  -0.00011  -0.00548  29.06367  -0.00010
       z    -0.00000  -0.00004  -0.00001  -0.00033   0.00030   0.86823
-------------------------------------------------------------------------------


  Static dielectric constant tensor : 

-------------------------------------------------------------------------------
              x         y         z
-------------------------------------------------------------------------------
       x     1.78176   0.00000  -0.00000
       y     0.00000   1.78176   0.00000
       z    -0.00000   0.00000   1.19905
--------------------------------------------------------------------------------

  Static refractive indices : 

-------------------------------------------------------------------------------
    1 =    1.09501      2 =    1.33483      3 =    1.33483
-------------------------------------------------------------------------------


  Time to end of optimisation =       0.0481 seconds


  Peak dynamic memory used =       2.69 MB 


  Timing analysis for GULP :

--------------------------------------------------------------------------------
  Task / Subroutine                                          Time (Seconds)
--------------------------------------------------------------------------------
  Calculation of reciprocal space energy and derivatives          0.0065
  Calculation of real space energy and derivatives                0.0337
  Calculation of three-body energy and derivatives                0.0005
  Calculation of four-body energy and derivatives                 0.0007
  Calculation of molecules and connectivity                       0.0001
--------------------------------------------------------------------------------
  Total CPU time                                                  0.0481
--------------------------------------------------------------------------------


  Job Finished at 11:35.07  8th July       2020                               

