********************************************************************************
*                       GENERAL UTILITY LATTICE PROGRAM                        *
*                                 Julian Gale                                  *
*                       Curtin Institute for Computation                       *
*                    School of Molecular and Life Sciences                     *
*                    Curtin University, Western Australia                      *
********************************************************************************
* Version = 6.0.0 * Last modified =   7th July 2020                            *
********************************************************************************
*  transition   - transition state search by rfo method                        *
*  bulk_noopt   - do not optimise during bulk calculation                      *
*  property     - calculate properties for final geometry                      *
*  defect       - perform defect calculation after bulk run                    *
*  regi_before  - output region 1 at start of defect calculation               *
*  nodsym       - symmetry not to be used in defect calculation                *
*  rfo          - optimisation step to be determined by RFO method             *
********************************************************************************
* Example of defect transition state calc : Magnesium vacancy migration        *
********************************************************************************


  Job Started  at 11:35.05  8th July       2020                               

  Number of CPUs =     1

  Host name      = M-A0034725                              


  Total number of configurations input =      1

********************************************************************************
*  Input for Configuration =   1                                               *
********************************************************************************

  Formula = O4Mg4                                                       

  Number of irreducible atoms/shells =      12


  Total number atoms/shells =      12

  Dimensionality = 3               :  Bulk   



  Cartesian lattice vectors (Angstroms) :

        4.212000    0.000000    0.000000
        0.000000    4.212000    0.000000
        0.000000    0.000000    4.212000

  Cell parameters (Angstroms/Degrees):

  a =       4.2120    alpha =  90.0000
  b =       4.2120    beta  =  90.0000
  c =       4.2120    gamma =  90.0000

  Initial cell volume =          74.724856 Angs**3

  Temperature of configuration =   0.00     K 

  Pressure of configuration =         0.000 GPa 

  Fractional coordinates of asymmetric unit :

--------------------------------------------------------------------------------
   No.  Atomic       x           y          z         Charge      Occupancy
        Label      (Frac)      (Frac)     (Frac)        (e)         (Frac)  
--------------------------------------------------------------------------------
      1 O     c    0.500000    0.500000    0.500000     0.86902    1.000000    
      2 O     c    0.500000    0.000000    0.000000     0.86902    1.000000    
      3 O     c    0.000000    0.500000    0.000000     0.86902    1.000000    
      4 O     c    0.000000    0.000000    0.500000     0.86902    1.000000    
      5 Mg    c    0.000000    0.000000    0.000000     2.00000    1.000000    
      6 Mg    c    0.000000    0.500000    0.500000     2.00000    1.000000    
      7 Mg    c    0.500000    0.000000    0.500000     2.00000    1.000000    
      8 Mg    c    0.500000    0.500000    0.000000     2.00000    1.000000    
      9 O     s    0.500000    0.500000    0.500000    -2.86902    1.000000    
     10 O     s    0.500000    0.000000    0.000000    -2.86902    1.000000    
     11 O     s    0.000000    0.500000    0.000000    -2.86902    1.000000    
     12 O     s    0.000000    0.000000    0.500000    -2.86902    1.000000    
--------------------------------------------------------------------------------



********************************************************************************
*  General input information                                                   *
********************************************************************************

  Species output for all configurations : 

--------------------------------------------------------------------------------
  Species    Type    Atomic    Atomic    Charge       Radii (Angs)     Library
                     Number     Mass       (e)     Cova   Ionic  VDW   Symbol
--------------------------------------------------------------------------------
    O        Core        8      16.00   0.869020   0.730  0.000  1.360          
    Mg       Core       12      24.31   2.000000   1.100  0.000  1.640          
    O        Shell       8       0.00  -2.869020   0.730  0.000  1.360          
--------------------------------------------------------------------------------


  Lattice summation method               =    Ewald          (3-D)
                                         =    Parry          (2-D)
                                         =    Saunders et al (1-D)
  Accuracy factor for lattice sums       =   12.000


  Analytic derivatives to be used

  Time limit = Infinity

  Maximum range for interatomic potentials =    100000.000000 Angstroms

  General interatomic potentials :

--------------------------------------------------------------------------------
Atom  Types   Potential      Parameter       Value         Units   Cutoffs(Ang)
  1     2                                                            Min /  Max 
--------------------------------------------------------------------------------
Mg   c O    s Buckingham    Buckingham A     1280.0000    eV        0.000  5.000
                            Buckingham rho  0.30000000    Ang       
                            Buckingham C     0.0000000    eV*Ang^6  
--------------------------------------------------------------------------------
O    s O    s Buckingham    Buckingham A     1280.0000    eV        0.000  5.000
                            Buckingham rho  0.30000000    Ang       
                            Buckingham C     27.880000    eV*Ang^6  
--------------------------------------------------------------------------------
O    c O    s Spring (c-s)  Spring k 2       74.920000    eV*Ang^-2 0.000  0.800
                            Spring k 4       0.0000000    eV*Ang^-4 
--------------------------------------------------------------------------------

********************************************************************************
*  Output for configuration   1                                                *
********************************************************************************


  Components of energy : 

--------------------------------------------------------------------------------
  Interatomic potentials     =          28.18454413 eV    
  Monopole - monopole (real) =         -57.34563089 eV    
  Monopole - monopole (recip)=        -133.83771537 eV    
  Monopole - monopole (total)=        -191.18334626 eV    
--------------------------------------------------------------------------------
  Total lattice energy       =        -162.99880213 eV    
--------------------------------------------------------------------------------
  Total lattice energy       =          -15726.8927 kJ/(mole unit cells)
--------------------------------------------------------------------------------

  Born effective charge tensors : 

-------------------------------------------------------------------------------
  Atom             x           y             z
-------------------------------------------------------------------------------
    1 O     x      -2.0071     -0.0000      0.0000
            y      -0.0000     -2.0071      0.0000
            z       0.0000      0.0000     -2.0071
-------------------------------------------------------------------------------
    2 O     x      -2.0071     -0.0000      0.0000
            y      -0.0000     -2.0071      0.0000
            z       0.0000      0.0000     -2.0071
-------------------------------------------------------------------------------
    3 O     x      -2.0071     -0.0000     -0.0000
            y      -0.0000     -2.0071      0.0000
            z       0.0000      0.0000     -2.0071
-------------------------------------------------------------------------------
    4 O     x      -2.0071     -0.0000     -0.0000
            y      -0.0000     -2.0071     -0.0000
            z      -0.0000     -0.0000     -2.0071
-------------------------------------------------------------------------------
    5 Mg    x       2.0071      0.0000     -0.0000
            y       0.0000      2.0071     -0.0000
            z      -0.0000     -0.0000      2.0071
-------------------------------------------------------------------------------
    6 Mg    x       2.0071      0.0000     -0.0000
            y       0.0000      2.0071     -0.0000
            z      -0.0000     -0.0000      2.0071
-------------------------------------------------------------------------------
    7 Mg    x       2.0071      0.0000     -0.0000
            y       0.0000      2.0071     -0.0000
            z      -0.0000     -0.0000      2.0071
-------------------------------------------------------------------------------
    8 Mg    x       2.0071      0.0000      0.0000
            y       0.0000      2.0071      0.0000
            z       0.0000      0.0000      2.0071
-------------------------------------------------------------------------------




  Elastic Constant Matrix: (Units=GPa)

-------------------------------------------------------------------------------
  Indices      1         2         3         4         5         6    
-------------------------------------------------------------------------------
       1    401.5289  192.7222  192.7222   -0.0000   -0.0000   -0.0000
       2    192.7222  401.5289  192.7222   -0.0000   -0.0000   -0.0000
       3    192.7222  192.7222  401.5289    0.0000    0.0000    0.0000
       4     -0.0000   -0.0000    0.0000  183.1294    0.0000   -0.0000
       5     -0.0000   -0.0000    0.0000    0.0000  183.1294    0.0000
       6     -0.0000   -0.0000    0.0000   -0.0000    0.0000  183.1294
-------------------------------------------------------------------------------


  Elastic Compliance Matrix: (Units=1/GPa)

-------------------------------------------------------------------------------
  Indices      1         2         3         4         5         6    
-------------------------------------------------------------------------------
       1    0.003616 -0.001173 -0.001173 -0.000000  0.000000  0.000000
       2   -0.001173  0.003616 -0.001173  0.000000 -0.000000  0.000000
       3   -0.001173 -0.001173  0.003616 -0.000000 -0.000000 -0.000000
       4   -0.000000  0.000000 -0.000000  0.005461 -0.000000  0.000000
       5    0.000000 -0.000000 -0.000000 -0.000000  0.005461 -0.000000
       6    0.000000  0.000000 -0.000000  0.000000 -0.000000  0.005461
-------------------------------------------------------------------------------

  Mechanical properties :

-------------------------------------------------------------------------------
  Convention :                    Reuss         Voigt         Hill
-------------------------------------------------------------------------------
  Bulk  Modulus (GPa)     =     262.32443     262.32443     262.32443
  Shear Modulus (GPa)     =     140.69316     151.63897     146.16606
-------------------------------------------------------------------------------
  Velocity S-wave (km/s)  =       6.26621       6.50539       6.38692
  Velocity P-wave (km/s)  =      11.20556      11.38585      11.29607
-------------------------------------------------------------------------------
  Compressibility (1/GPa) =    0.00381207
-------------------------------------------------------------------------------
  Stress axis :                     x             y             z
-------------------------------------------------------------------------------
  Youngs Moduli (GPa)     =     276.52509     276.52509     276.52509
-------------------------------------------------------------------------------
  Poissons Ratio (x)      =                     0.32431       0.32431
  Poissons Ratio (y)      =       0.32431                     0.32431
  Poissons Ratio (z)      =       0.32431       0.32431
-------------------------------------------------------------------------------


  Piezoelectric Strain Matrix: (Units=C/m**2)

-------------------------------------------------------------------------------
  Indices      1         2         3         4         5         6    
-------------------------------------------------------------------------------
       x    -0.00000   0.00000   0.00000  -0.00000   0.00000   0.00000
       y    -0.00000  -0.00000  -0.00000   0.00000  -0.00000   0.00000
       z    -0.00000  -0.00000   0.00000   0.00000   0.00000  -0.00000
-------------------------------------------------------------------------------


  Piezoelectric Stress Matrix: (Units=10**-11 C/N)

-------------------------------------------------------------------------------
  Indices      1         2         3         4         5         6    
-------------------------------------------------------------------------------
       x    -0.00000   0.00000   0.00000  -0.00000   0.00000   0.00000
       y     0.00000  -0.00000   0.00000   0.00000  -0.00000   0.00000
       z    -0.00000  -0.00000   0.00000   0.00000   0.00000  -0.00000
-------------------------------------------------------------------------------


  Static dielectric constant tensor : 

-------------------------------------------------------------------------------
              x         y         z
-------------------------------------------------------------------------------
       x     9.35941   0.00000  -0.00000
       y     0.00000   9.35941  -0.00000
       z    -0.00000  -0.00000   9.35941
--------------------------------------------------------------------------------

  High frequency dielectric constant tensor : 

-------------------------------------------------------------------------------
              x         y         z
-------------------------------------------------------------------------------
       x     2.19527   0.00000  -0.00000
       y     0.00000   2.19527  -0.00000
       z    -0.00000  -0.00000   2.19527
-------------------------------------------------------------------------------

  Static refractive indices : 

-------------------------------------------------------------------------------
    1 =    3.05932      2 =    3.05932      3 =    3.05932
-------------------------------------------------------------------------------

  High frequency refractive indices : 

-------------------------------------------------------------------------------
    1 =    1.48165      2 =    1.48165      3 =    1.48165
-------------------------------------------------------------------------------


  Time to end of properties =       0.0071 seconds

********************************************************************************
*  Defect calculation for configuration   1 :                                  *
********************************************************************************

  Total number of defects =      3

  Total charge on defect  =  -2.00

  Defect centre is at   0.2500   0.2500   0.0000  Frac

  Region 1 radius =   4.0000      Number of ions =     53

  Region 2 radius =  10.0000      Number of ions =    648

  Region 2a mode = 4 : screened electrostatics due to region 1 
                       neglect correction to region 1 forces from 2a
                       region 2a displacements based on defects only

  Region 2a ions will only interact with defects in region 1

  Vacancies:

--------------------------------------------------------------------------------
    Specification type     Symbol/Number         x          y          z
--------------------------------------------------------------------------------
    Fractional                               0.000000   0.000000   0.000000
    Fractional                               0.500000   0.500000   0.000000
--------------------------------------------------------------------------------

  Interstitials:

--------------------------------------------------------------------------------
    Specification type     Symbol/Number         x          y          z
--------------------------------------------------------------------------------
    Atom/Fractional         Mg               0.200000   0.300000   0.000000
--------------------------------------------------------------------------------


  Region 1 (Absolute coordinates) :

--------------------------------------------------------------------------------
   No.   Atomic       x            y             z         Charge   Occupancy
         Label      (Angs)       (Angs)        (Angs)        (e)    
--------------------------------------------------------------------------------
     1  Mg    c      0.8424 *     1.2636 *     0.0000 *    2.00000   1.0000
     2  O     c      2.1060 *     0.0000 *     0.0000 *    0.86902   1.0000
     3  O     c      0.0000 *     2.1060 *     0.0000 *    0.86902   1.0000
     4  O     c      2.1060 *     2.1060 *    -2.1060 *    0.86902   1.0000
     5  O     c      2.1060 *     2.1060 *     2.1060 *    0.86902   1.0000
     6  O     c      0.0000 *     0.0000 *    -2.1060 *    0.86902   1.0000
     7  O     c      0.0000 *     0.0000 *     2.1060 *    0.86902   1.0000
     8  Mg    c      0.0000 *     2.1060 *    -2.1060 *    2.00000   1.0000
     9  Mg    c      0.0000 *     2.1060 *     2.1060 *    2.00000   1.0000
    10  Mg    c      2.1060 *     0.0000 *    -2.1060 *    2.00000   1.0000
    11  Mg    c      2.1060 *     0.0000 *     2.1060 *    2.00000   1.0000
    12  O     c      2.1060 *     4.2120 *     0.0000 *    0.86902   1.0000
    13  O     c     -2.1060 *     0.0000 *     0.0000 *    0.86902   1.0000
    14  O     c      0.0000 *    -2.1060 *     0.0000 *    0.86902   1.0000
    15  O     c      4.2120 *     2.1060 *     0.0000 *    0.86902   1.0000
    16  Mg    c      0.0000 *     4.2120 *     0.0000 *    2.00000   1.0000
    17  Mg    c      4.2120 *     0.0000 *     0.0000 *    2.00000   1.0000
    18  Mg    c      2.1060 *    -2.1060 *     0.0000 *    2.00000   1.0000
    19  Mg    c     -2.1060 *     2.1060 *     0.0000 *    2.00000   1.0000
    20  O     c      2.1060 *    -2.1060 *    -2.1060 *    0.86902   1.0000
    21  O     c      2.1060 *    -2.1060 *     2.1060 *    0.86902   1.0000
    22  O     c     -2.1060 *     2.1060 *    -2.1060 *    0.86902   1.0000
    23  O     c     -2.1060 *     2.1060 *     2.1060 *    0.86902   1.0000
    24  O     c      0.0000 *     4.2120 *    -2.1060 *    0.86902   1.0000
    25  O     c      0.0000 *     4.2120 *     2.1060 *    0.86902   1.0000
    26  O     c      4.2120 *     0.0000 *    -2.1060 *    0.86902   1.0000
    27  O     c      4.2120 *     0.0000 *     2.1060 *    0.86902   1.0000
    28  Mg    c      0.0000 *    -2.1060 *    -2.1060 *    2.00000   1.0000
    29  Mg    c      0.0000 *    -2.1060 *     2.1060 *    2.00000   1.0000
    30  Mg    c      4.2120 *     2.1060 *    -2.1060 *    2.00000   1.0000
    31  Mg    c      4.2120 *     2.1060 *     2.1060 *    2.00000   1.0000
    32  Mg    c      2.1060 *     4.2120 *    -2.1060 *    2.00000   1.0000
    33  Mg    c      2.1060 *     4.2120 *     2.1060 *    2.00000   1.0000
    34  Mg    c     -2.1060 *     0.0000 *    -2.1060 *    2.00000   1.0000
    35  Mg    c     -2.1060 *     0.0000 *     2.1060 *    2.00000   1.0000
    36  O     s      2.1060 *     0.0000 *     0.0000 *   -2.86902   1.0000
    37  O     s      0.0000 *     2.1060 *     0.0000 *   -2.86902   1.0000
    38  O     s      2.1060 *     2.1060 *    -2.1060 *   -2.86902   1.0000
    39  O     s      2.1060 *     2.1060 *     2.1060 *   -2.86902   1.0000
    40  O     s      0.0000 *     0.0000 *    -2.1060 *   -2.86902   1.0000
    41  O     s      0.0000 *     0.0000 *     2.1060 *   -2.86902   1.0000
    42  O     s      2.1060 *     4.2120 *     0.0000 *   -2.86902   1.0000
    43  O     s     -2.1060 *     0.0000 *     0.0000 *   -2.86902   1.0000
    44  O     s      0.0000 *    -2.1060 *     0.0000 *   -2.86902   1.0000
    45  O     s      4.2120 *     2.1060 *     0.0000 *   -2.86902   1.0000
    46  O     s      2.1060 *    -2.1060 *    -2.1060 *   -2.86902   1.0000
    47  O     s      2.1060 *    -2.1060 *     2.1060 *   -2.86902   1.0000
    48  O     s     -2.1060 *     2.1060 *    -2.1060 *   -2.86902   1.0000
    49  O     s     -2.1060 *     2.1060 *     2.1060 *   -2.86902   1.0000
    50  O     s      0.0000 *     4.2120 *    -2.1060 *   -2.86902   1.0000
    51  O     s      0.0000 *     4.2120 *     2.1060 *   -2.86902   1.0000
    52  O     s      4.2120 *     0.0000 *    -2.1060 *   -2.86902   1.0000
    53  O     s      4.2120 *     0.0000 *     2.1060 *   -2.86902   1.0000
------------------------------------------------------------------------------------



  Components of defect energy : 

--------------------------------------------------------------------------------
  Region 1 - region 1                   =     49.01703588 eV
  Region 1 - region 2a (unrelaxed)      =      0.61256255 eV
  Region 1 - 2a (relaxed - correction)  =     -7.17572847 eV
  Region 1 (Total)                      =     42.45386995 eV
  Region 2a                             =      3.58724709 eV
  Region 2b                             =     -2.53878863 eV
--------------------------------------------------------------------------------
  Total defect energy                   =     43.50232842 eV
--------------------------------------------------------------------------------

  Largest displacement in region 2 =   0.0517 Angstroms


  Number of variables =      159

  Maximum number of calculations  =        1000
  Maximum Hessian update interval =           1
  Maximum step size               =   1.0000000
  Maximum parameter tolerance     =   0.0000100
  Maximum function  tolerance     =   0.0000100
  Maximum gradient  tolerance     =   0.0010000

  Symmetry not applied to optimisation

  RFO method to be used

  Transition state search of order   1

  Lower half triangular hessian to be used

  Start of defect optimisation :

  Cycle:      0 Defect Energy:  43.502328  Gnorm:     0.488892  CPU:    0.052
  ** Hessian has wrong structure
  ** Imaginary eigenvectors =   2
  ** Hessian has wrong structure
  ** Imaginary eigenvectors =   2
  Cycle:      1 Defect Energy:  37.737372  Gnorm:     0.265291  CPU:    0.206
  ** Hessian has wrong structure
  ** Imaginary eigenvectors =   2
  Cycle:      2 Defect Energy:  33.394352  Gnorm:     0.213401  CPU:    0.366
  ** Hessian has required structure
  Cycle:      3 Defect Energy:  32.614279  Gnorm:     0.192989  CPU:    0.406
  ** Hessian has required structure
  Cycle:      4 Defect Energy:  31.814919  Gnorm:     0.162433  CPU:    0.447
  ** Hessian has required structure
  Cycle:      5 Defect Energy:  31.529412  Gnorm:     0.119223  CPU:    0.494
  ** Hessian has required structure
  Cycle:      6 Defect Energy:  31.750612  Gnorm:     0.088692  CPU:    0.536
  ** Hessian has required structure
  Cycle:      7 Defect Energy:  32.929503  Gnorm:     0.069297  CPU:    0.577
  ** Hessian has required structure
  Cycle:      8 Defect Energy:  34.726576  Gnorm:     0.058385  CPU:    0.618
  ** Hessian has required structure
  Cycle:      9 Defect Energy:  36.611109  Gnorm:     0.052226  CPU:    0.659
  ** Hessian has required structure
  Cycle:     10 Defect Energy:  38.377345  Gnorm:     0.048336  CPU:    0.700
  ** Hessian has required structure
  Cycle:     11 Defect Energy:  40.163275  Gnorm:     0.045754  CPU:    0.740
  ** Hessian has wrong structure
  ** Imaginary eigenvectors =   2
  Cycle:     12 Defect Energy:  32.259956  Gnorm:     0.044724  CPU:    0.908
  ** Hessian has required structure
  Cycle:     13 Defect Energy:  30.940773  Gnorm:     0.037551  CPU:    0.951
  ** Hessian has required structure
  Cycle:     14 Defect Energy:  29.853832  Gnorm:     0.031400  CPU:    1.000
  ** Hessian has required structure
  Cycle:     15 Defect Energy:  28.977201  Gnorm:     0.025967  CPU:    1.045
  ** Hessian has required structure
  Cycle:     16 Defect Energy:  28.300702  Gnorm:     0.021154  CPU:    1.090
  ** Hessian has required structure
  Cycle:     17 Defect Energy:  27.788920  Gnorm:     0.016924  CPU:    1.134
  ** Hessian has required structure
  Cycle:     18 Defect Energy:  27.421395  Gnorm:     0.013250  CPU:    1.178
  ** Hessian has required structure
  Cycle:     19 Defect Energy:  27.172378  Gnorm:     0.010127  CPU:    1.220
  ** Hessian has required structure
  Cycle:     20 Defect Energy:  27.012638  Gnorm:     0.007541  CPU:    1.263
  ** Hessian has required structure
  Cycle:     21 Defect Energy:  26.919908  Gnorm:     0.005493  CPU:    1.313
  ** Hessian has required structure
  Cycle:     22 Defect Energy:  26.863177  Gnorm:     0.003924  CPU:    1.360
  ** Hessian has required structure
  Cycle:     23 Defect Energy:  26.838150  Gnorm:     0.002775  CPU:    1.406
  ** Hessian has required structure
  Cycle:     24 Defect Energy:  26.825896  Gnorm:     0.001952  CPU:    1.451
  ** Hessian has required structure
  Cycle:     25 Defect Energy:  26.821801  Gnorm:     0.001370  CPU:    1.497
  ** Hessian has required structure
  Cycle:     26 Defect Energy:  26.819098  Gnorm:     0.000960  CPU:    1.542
  ** Hessian has required structure
  Cycle:     27 Defect Energy:  26.817883  Gnorm:     0.000677  CPU:    1.588
  ** Hessian has required structure
  Cycle:     28 Defect Energy:  26.817357  Gnorm:     0.000474  CPU:    1.632
  ** Hessian has required structure
  Cycle:     29 Defect Energy:  26.817152  Gnorm:     0.000332  CPU:    1.676
  ** Hessian has required structure
  Cycle:     30 Defect Energy:  26.817088  Gnorm:     0.000232  CPU:    1.720
  ** Hessian has required structure


  **** Optimisation achieved ****


  Final defect energy  =       26.81708192
  Final defect Gnorm   =        0.00016256

  Components of defect energy : 

--------------------------------------------------------------------------------
  Region 1 - region 1                   =     29.36209134 eV
  Region 1 - region 2a (unrelaxed)      =      2.66870103 eV
  Region 1 - 2a (relaxed - correction)  =     -5.35209824 eV
  Region 1 (Total)                      =     26.67869413 eV
  Region 2a                             =      2.67570255 eV
  Region 2b                             =     -2.53731476 eV
--------------------------------------------------------------------------------
  Total defect energy                   =     26.81708192 eV
--------------------------------------------------------------------------------

  Largest displacement in region 2 =   0.0515 Angstroms

  Final coordinates of region 1 :

--------------------------------------------------------------------------------
   No.  Atomic        x           y           z          Radius      Charge
        Label       (Angs)      (Angs)      (Angs)       (Angs)       (e) 
--------------------------------------------------------------------------------
     1  Mg    c     1.051953    1.054047    0.002707    0.000000    2.000000
     2  O     c     2.302865   -0.196864   -0.000097    0.000000    0.869020
     3  O     c    -0.199135    2.305135   -0.002691    0.000000    0.869020
     4  O     c     2.051368    2.051913   -2.135048    0.000000    0.869020
     5  O     c     2.050183    2.051713    2.133817    0.000000    0.869020
     6  O     c     0.054087    0.054632   -2.135048    0.000000    0.869020
     7  O     c     0.054287    0.055817    2.133817    0.000000    0.869020
     8  Mg    c    -0.027860    2.133860   -2.152590    0.000000    2.000000
     9  Mg    c    -0.028983    2.134983    2.152966    0.000000    2.000000
    10  Mg    c     2.133166   -0.027166   -2.151753    0.000000    2.000000
    11  Mg    c     2.133843   -0.027843    2.152216    0.000000    2.000000
    12  O     c     2.103916    4.341069   -0.000034    0.000000    0.869020
    13  O     c    -2.235069    0.002084   -0.000034    0.000000    0.869020
    14  O     c     0.001507   -2.234949    0.000070    0.000000    0.869020
    15  O     c     4.340949    2.104493    0.000070    0.000000    0.869020
    16  Mg    c     0.037369    4.214708   -0.000846    0.000000    2.000000
    17  Mg    c     4.213765    0.037956   -0.000360    0.000000    2.000000
    18  Mg    c     2.068044   -2.107765   -0.000360    0.000000    2.000000
    19  Mg    c    -2.108708    2.068631   -0.000846    0.000000    2.000000
    20  O     c     2.127643   -2.138143   -2.153648    0.000000    0.869020
    21  O     c     2.127454   -2.137854    2.153796    0.000000    0.869020
    22  O     c    -2.139059    2.127817   -2.154604    0.000000    0.869020
    23  O     c    -2.138277    2.127981    2.154068    0.000000    0.869020
    24  O     c    -0.021817    4.245059   -2.154604    0.000000    0.869020
    25  O     c    -0.021981    4.244277    2.154068    0.000000    0.869020
    26  O     c     4.244143   -0.021643   -2.153648    0.000000    0.869020
    27  O     c     4.243854   -0.021454    2.153796    0.000000    0.869020
    28  Mg    c     0.009743   -2.017221   -1.996766    0.000000    2.000000
    29  Mg    c     0.009750   -2.017302    1.996371    0.000000    2.000000
    30  Mg    c     4.123221    2.096257   -1.996766    0.000000    2.000000
    31  Mg    c     4.123302    2.096250    1.996371    0.000000    2.000000
    32  Mg    c     2.095902    4.123608   -1.996959    0.000000    2.000000
    33  Mg    c     2.095817    4.123745    1.996367    0.000000    2.000000
    34  Mg    c    -2.017608    0.010099   -1.996959    0.000000    2.000000
    35  Mg    c    -2.017745    0.010183    1.996367    0.000000    2.000000
    36  O     s     2.285908   -0.179908   -0.000010    0.000000   -2.869020
    37  O     s    -0.181975    2.287976   -0.002533    0.000000   -2.869020
    38  O     s     2.050886    2.051399   -2.156120    0.000000   -2.869020
    39  O     s     2.049645    2.051157    2.154778    0.000000   -2.869020
    40  O     s     0.054601    0.055114   -2.156120    0.000000   -2.869020
    41  O     s     0.054843    0.056355    2.154778    0.000000   -2.869020
    42  O     s     2.100113    4.371659    0.000020    0.000000   -2.869020
    43  O     s    -2.265659    0.005887    0.000020    0.000000   -2.869020
    44  O     s     0.005321   -2.265495    0.000121    0.000000   -2.869020
    45  O     s     4.371495    2.100679    0.000121    0.000000   -2.869020
    46  O     s     2.130490   -2.139084   -2.159063    0.000000   -2.869020
    47  O     s     2.130305   -2.138721    2.159289    0.000000   -2.869020
    48  O     s    -2.139992    2.130679   -2.160023    0.000000   -2.869020
    49  O     s    -2.139085    2.130843    2.159594    0.000000   -2.869020
    50  O     s    -0.024679    4.245992   -2.160023    0.000000   -2.869020
    51  O     s    -0.024843    4.245085    2.159594    0.000000   -2.869020
    52  O     s     4.245084   -0.024490   -2.159063    0.000000   -2.869020
    53  O     s     4.244721   -0.024304    2.159289    0.000000   -2.869020
--------------------------------------------------------------------------------

  Final coordinates of region 1 relative to defect centre :

--------------------------------------------------------------------------------
   No.  Atomic        x           y           z          Charge
        Label       (Angs)      (Angs)      (Angs)         (e) 
--------------------------------------------------------------------------------
     1  Mg    c    -0.001047    0.001047    0.002707    2.000000
     2  O     c     1.249865   -1.249864   -0.000097    0.869020
     3  O     c    -1.252135    1.252135   -0.002691    0.869020
     4  O     c     0.998368    0.998913   -2.135048    0.869020
     5  O     c     0.997183    0.998713    2.133817    0.869020
     6  O     c    -0.998913   -0.998368   -2.135048    0.869020
     7  O     c    -0.998713   -0.997183    2.133817    0.869020
     8  Mg    c    -1.080860    1.080860   -2.152590    2.000000
     9  Mg    c    -1.081983    1.081983    2.152966    2.000000
    10  Mg    c     1.080166   -1.080166   -2.151753    2.000000
    11  Mg    c     1.080843   -1.080843    2.152216    2.000000
    12  O     c     1.050916    3.288069   -0.000034    0.869020
    13  O     c    -3.288069   -1.050916   -0.000034    0.869020
    14  O     c    -1.051493   -3.287949    0.000070    0.869020
    15  O     c     3.287949    1.051493    0.000070    0.869020
    16  Mg    c    -1.015631    3.161708   -0.000846    2.000000
    17  Mg    c     3.160765   -1.015044   -0.000360    2.000000
    18  Mg    c     1.015044   -3.160765   -0.000360    2.000000
    19  Mg    c    -3.161708    1.015631   -0.000846    2.000000
    20  O     c     1.074643   -3.191143   -2.153648    0.869020
    21  O     c     1.074454   -3.190854    2.153796    0.869020
    22  O     c    -3.192059    1.074817   -2.154604    0.869020
    23  O     c    -3.191277    1.074981    2.154068    0.869020
    24  O     c    -1.074817    3.192059   -2.154604    0.869020
    25  O     c    -1.074981    3.191277    2.154068    0.869020
    26  O     c     3.191143   -1.074643   -2.153648    0.869020
    27  O     c     3.190854   -1.074454    2.153796    0.869020
    28  Mg    c    -1.043257   -3.070221   -1.996766    2.000000
    29  Mg    c    -1.043250   -3.070302    1.996371    2.000000
    30  Mg    c     3.070221    1.043257   -1.996766    2.000000
    31  Mg    c     3.070302    1.043250    1.996371    2.000000
    32  Mg    c     1.042902    3.070608   -1.996959    2.000000
    33  Mg    c     1.042817    3.070745    1.996367    2.000000
    34  Mg    c    -3.070608   -1.042901   -1.996959    2.000000
    35  Mg    c    -3.070745   -1.042817    1.996367    2.000000
    36  O     s     1.232908   -1.232908   -0.000010   -2.869020
    37  O     s    -1.234975    1.234976   -0.002533   -2.869020
    38  O     s     0.997886    0.998399   -2.156120   -2.869020
    39  O     s     0.996645    0.998157    2.154778   -2.869020
    40  O     s    -0.998399   -0.997886   -2.156120   -2.869020
    41  O     s    -0.998157   -0.996645    2.154778   -2.869020
    42  O     s     1.047113    3.318659    0.000020   -2.869020
    43  O     s    -3.318659   -1.047113    0.000020   -2.869020
    44  O     s    -1.047679   -3.318495    0.000121   -2.869020
    45  O     s     3.318495    1.047679    0.000121   -2.869020
    46  O     s     1.077490   -3.192084   -2.159063   -2.869020
    47  O     s     1.077305   -3.191721    2.159289   -2.869020
    48  O     s    -3.192992    1.077679   -2.160023   -2.869020
    49  O     s    -3.192085    1.077843    2.159594   -2.869020
    50  O     s    -1.077679    3.192992   -2.160023   -2.869020
    51  O     s    -1.077843    3.192085    2.159594   -2.869020
    52  O     s     3.192084   -1.077490   -2.159063   -2.869020
    53  O     s     3.191721   -1.077304    2.159289   -2.869020
--------------------------------------------------------------------------------


  Final derivatives for region 1 :

--------------------------------------------------------------------------------
   No.  Atomic          x             y             z            Radius
        Label       (eV/Angs)     (eV/Angs)     (eV/Angs)       (eV/Angs)
--------------------------------------------------------------------------------
     1  Mg    c      -0.001160      0.001161      0.002908      0.000000
     2  O     c      -0.006613      0.006616     -0.000692      0.000000
     3  O     c      -0.006085      0.006085     -0.007752      0.000000
     4  O     c       0.000442      0.000926     -0.001366      0.000000
     5  O     c      -0.001601      0.002166      0.000590      0.000000
     6  O     c      -0.000925     -0.000442     -0.001365      0.000000
     7  O     c      -0.002166      0.001601      0.000590      0.000000
     8  Mg    c       0.000748     -0.000748     -0.003754      0.000000
     9  Mg    c      -0.002461      0.002461      0.003214      0.000000
    10  Mg    c      -0.001741      0.001741      0.002187      0.000000
    11  Mg    c      -0.001651      0.001652     -0.002478      0.000000
    12  O     c      -0.001250     -0.000107     -0.000153      0.000000
    13  O     c       0.000107      0.001250     -0.000153      0.000000
    14  O     c      -0.000578      0.000206      0.000019      0.000000
    15  O     c      -0.000206      0.000578      0.000019      0.000000
    16  Mg    c      -0.001518      0.002055     -0.001639      0.000000
    17  Mg    c      -0.000360      0.001354     -0.000544      0.000000
    18  Mg    c      -0.001353      0.000360     -0.000544      0.000000
    19  Mg    c      -0.002055      0.001518     -0.001639      0.000000
    20  O     c      -0.000326      0.000875      0.001379      0.000000
    21  O     c      -0.000805      0.001424     -0.001561      0.000000
    22  O     c      -0.002254     -0.000585     -0.001347      0.000000
    23  O     c      -0.000050      0.000928     -0.000390      0.000000
    24  O     c       0.000585      0.002254     -0.001347      0.000000
    25  O     c      -0.000928      0.000051     -0.000390      0.000000
    26  O     c      -0.000874      0.000326      0.001379      0.000000
    27  O     c      -0.001424      0.000805     -0.001561      0.000000
    28  Mg    c      -0.000350      0.000767     -0.000320      0.000000
    29  Mg    c      -0.000598      0.000653     -0.000019      0.000000
    30  Mg    c      -0.000767      0.000350     -0.000320      0.000000
    31  Mg    c      -0.000653      0.000599     -0.000019      0.000000
    32  Mg    c      -0.000472      0.000895     -0.001085      0.000000
    33  Mg    c      -0.000583      0.001176      0.000103      0.000000
    34  Mg    c      -0.000895      0.000472     -0.001085      0.000000
    35  Mg    c      -0.001176      0.000584      0.000103      0.000000
    36  O     s      -0.005036      0.005039      0.000507      0.000000
    37  O     s      -0.003891      0.003891     -0.009418      0.000000
    38  O     s      -0.000373      0.002807     -0.002648      0.000000
    39  O     s      -0.003547      0.002576      0.000122      0.000000
    40  O     s      -0.002806      0.000373     -0.002647      0.000000
    41  O     s      -0.002575      0.003547      0.000121      0.000000
    42  O     s      -0.000904     -0.000874      0.000143      0.000000
    43  O     s       0.000874      0.000904      0.000143      0.000000
    44  O     s      -0.000697     -0.000015      0.000493      0.000000
    45  O     s       0.000015      0.000697      0.000493      0.000000
    46  O     s       0.000231      0.000025      0.001974      0.000000
    47  O     s      -0.000551      0.001343     -0.002301      0.000000
    48  O     s      -0.001874      0.000281     -0.002053      0.000000
    49  O     s       0.000874      0.000004      0.000437      0.000000
    50  O     s      -0.000281      0.001874     -0.002053      0.000000
    51  O     s      -0.000004     -0.000874      0.000437      0.000000
    52  O     s      -0.000025     -0.000231      0.001973      0.000000
    53  O     s      -0.001343      0.000551     -0.002300      0.000000
--------------------------------------------------------------------------------


  Time to end of optimisation  =        1.7651 seconds


  Peak dynamic memory used =       2.60 MB 


  Timing analysis for GULP :

--------------------------------------------------------------------------------
  Task / Subroutine                                          Time (Seconds)
--------------------------------------------------------------------------------
  Calculation of reciprocal space energy and derivatives          0.0002
  Calculation of real space energy and derivatives                0.0013
  Calculation for region 1 energy and derivatives (2-b)           0.5342
  Calculation for region 2a energy                                1.0155
  Calculation for region 2b energy                                0.0050
  Calculation and manipulation of Hessian matrix                  0.5496
--------------------------------------------------------------------------------
  Total CPU time                                                  1.7651
--------------------------------------------------------------------------------


  Job Finished at 11:35.06  8th July       2020                               

