********************************************************************************
*                       GENERAL UTILITY LATTICE PROGRAM                        *
*                                 Julian Gale                                  *
*                       Curtin Institute for Computation                       *
*                    School of Molecular and Life Sciences                     *
*                    Curtin University, Western Australia                      *
********************************************************************************
* Version = 6.0.0 * Last modified =   7th July 2020                            *
********************************************************************************
*  single       - perform a single point run                                   *
*  montecarlo   - perform a Monte Carlo run                                    *
*  conv         - constant volume calculation                                  *
********************************************************************************

  Job Started  at 11:50.30  8th July       2020                               

  Number of CPUs =     1

  Host name      = M-A0034725                              


  Total number of configurations input =      1

********************************************************************************
*  Input for Configuration =   1 : hydrogen                                    *
********************************************************************************

  Formula =                                                             

  Number of irreducible atoms/shells =       0


  Total number atoms/shells =       0

  Dimensionality = 3               :  Bulk   



  Cartesian lattice vectors (Angstroms) :

       25.000000    0.000000    0.000000
        0.000000   25.000000    0.000000
        0.000000    0.000000   25.000000

  Cell parameters (Angstroms/Degrees):

  a =      25.0000    alpha =  90.0000
  b =      25.0000    beta  =  90.0000
  c =      25.0000    gamma =  90.0000

  Initial cell volume =       15625.000000 Angs**3

  Temperature of configuration =   100.     K 

  Pressure of configuration =         0.000 GPa 

  Fractional coordinates of asymmetric unit :

--------------------------------------------------------------------------------
   No.  Atomic       x           y          z         Charge      Occupancy
        Label      (Frac)      (Frac)     (Frac)        (e)         (Frac)  
--------------------------------------------------------------------------------
--------------------------------------------------------------------------------



********************************************************************************
*  General input information                                                   *
********************************************************************************

  Species output for all configurations : 

--------------------------------------------------------------------------------
  Species    Type    Atomic    Atomic    Charge       Radii (Angs)     Library
                     Number     Mass       (e)     Cova   Ionic  VDW   Symbol
--------------------------------------------------------------------------------
    He       Core        2       2.16   0.000000   0.100  0.000  1.000          
--------------------------------------------------------------------------------


  Lattice summation method               =    Ewald          (3-D)
                                         =    Parry          (2-D)
                                         =    Saunders et al (1-D)
  Accuracy factor for lattice sums       =   12.000


  Analytic derivatives to be used

  Time limit = Infinity

  Maximum range for interatomic potentials =    100000.000000 Angstroms

  General interatomic potentials :

--------------------------------------------------------------------------------
Atom  Types   Potential      Parameter       Value         Units   Cutoffs(Ang)
  1     2                                                            Min /  Max 
--------------------------------------------------------------------------------
He   c He   c Lenn/es       Lennard epsilon 0.28696000E-02eV        0.000 10.000
                            Lennard sigma/m  2.9700000    Ang       
                            Exponent m        12          None
                            Exponent n         6          None
--------------------------------------------------------------------------------

********************************************************************************
*  Output for configuration   1 : hydrogen                                     *
********************************************************************************


  Components of energy : 

--------------------------------------------------------------------------------
  Interatomic potentials     =           0.00000000 eV    
  Monopole - monopole (real) =           0.00000000 eV    
  Monopole - monopole (recip)=           0.00000000 eV    
  Monopole - monopole (total)=           0.00000000 eV    
--------------------------------------------------------------------------------
  Total lattice energy       =           0.00000000 eV    
--------------------------------------------------------------------------------
  Total lattice energy       =               0.0000 kJ/(mole unit cells)
--------------------------------------------------------------------------------

********************************************************************************
*  Monte Carlo                                                                 *
********************************************************************************

  Number of trial MC steps   =         2000

  Output frequency in steps  =          100

  Sample frequency in steps  =           10

  Probability of creation    =     0.333333
  Probability of destruction =     0.333333
  Probability of translation =     0.333333
  Probability of rotation    =     0.000000
  Probability of swap        =     0.000000
  Probability of strain      =     0.000000

  Maximum Cartesian shift    =     0.500000 Angstroms
  Maximum rotational shift   =   180.000000 degrees
  Maximum strain shift       =     0.100000
  Number of possible swaps   =            0

  Target chemical potential  =    -0.042000 eV
  Accessible volume          = 15625.000000 Angs**3


  Trials:       100 Accepted:        69 Mean E/N:       -0.005465    15.333333
  Trials:       200 Accepted:       147 Mean E/N:       -0.014042    27.272109
  Trials:       300 Accepted:       232 Mean E/N:       -0.022437    35.146552
  Trials:       400 Accepted:       309 Mean E/N:       -0.032543    40.569579
  Trials:       500 Accepted:       383 Mean E/N:       -0.041171    44.652742
  Trials:       600 Accepted:       465 Mean E/N:       -0.050799    48.827957
  Trials:       700 Accepted:       547 Mean E/N:       -0.060811    52.787934
  Trials:       800 Accepted:       623 Mean E/N:       -0.067345    55.892456
  Trials:       900 Accepted:       709 Mean E/N:       -0.073617    58.445698
  Trials:      1000 Accepted:       788 Mean E/N:       -0.077938    60.157360
  Trials:      1100 Accepted:       870 Mean E/N:       -0.080816    61.263218
  Trials:      1200 Accepted:       944 Mean E/N:       -0.081687    61.740466
  Trials:      1300 Accepted:      1023 Mean E/N:       -0.081924    61.851417
  Trials:      1400 Accepted:      1103 Mean E/N:       -0.080248    61.521306
  Trials:      1500 Accepted:      1185 Mean E/N:       -0.081844    62.248101
  Trials:      1600 Accepted:      1260 Mean E/N:       -0.085278    63.375397
  Trials:      1700 Accepted:      1340 Mean E/N:       -0.088315    64.521642
  Trials:      1800 Accepted:      1415 Mean E/N:       -0.091635    65.830389
  Trials:      1900 Accepted:      1491 Mean E/N:       -0.094706    67.197854
  Trials:      2000 Accepted:      1576 Mean E/N:       -0.096304    68.305838

  Monte Carlo properties :

  Mean number of atoms =       68.305838
  Mean   energy        =       -0.096304
  Lowest energy        =       -0.169606

  Acceptance ratios :

--------------------------------------------------------------------------------
 Operation          Attempts            Accepted            %Accepted
--------------------------------------------------------------------------------
 Creation                    659                 506          76.7830
 Destruction                 643                 426          66.2519
 Translation                 698                 644          92.2636
--------------------------------------------------------------------------------
 Total                      2000                1576          78.8000
--------------------------------------------------------------------------------


  Final fractional coordinates of atoms :

--------------------------------------------------------------------------------
   No.  Atomic        x           y          z          Radius
        Label       (Frac)      (Frac)     (Frac)       (Angs) 
--------------------------------------------------------------------------------
     1  He    c     0.399539    0.013997    0.747930    0.000000
     2  He    c     0.633990    0.912166    0.394925    0.000000
     3  He    c     0.184745    0.212691    0.822403    0.000000
     4  He    c     0.492753    0.769014    0.151606    0.000000
     5  He    c     0.141160    0.803506    0.551356    0.000000
     6  He    c     0.921297    0.811127    0.786222    0.000000
     7  He    c     0.950322    0.938983    0.782503    0.000000
     8  He    c     0.675418    0.780142    0.701860    0.000000
     9  He    c     0.418012    0.066446    0.394505    0.000000
    10  He    c     0.866880    0.204448    0.745728    0.000000
    11  He    c     0.078799    0.563733    0.592023    0.000000
    12  He    c     0.194683    0.938933    0.149822    0.000000
    13  He    c     0.273456    0.521627    0.197407    0.000000
    14  He    c     0.004742    0.181353    0.527721    0.000000
    15  He    c     0.132241    0.922982    0.279797    0.000000
    16  He    c     0.672685    0.492394    0.262325    0.000000
    17  He    c     0.260393    0.959562    0.375455    0.000000
    18  He    c    -0.007976    0.785069    0.126844    0.000000
    19  He    c     0.911910    0.620763    0.932757    0.000000
    20  He    c     0.315553    0.496206    0.986501    0.000000
    21  He    c     0.791720    0.495707    0.648834    0.000000
    22  He    c     0.042715    0.083871    0.160180    0.000000
    23  He    c     0.320150    0.726385    0.494920    0.000000
    24  He    c     0.066825    0.800090    0.233110    0.000000
    25  He    c     0.973596    0.315957    0.940464    0.000000
    26  He    c     0.549920    0.596465    0.797482    0.000000
    27  He    c     0.187890    0.876929    0.798702    0.000000
    28  He    c     0.118854    0.893563    0.635590    0.000000
    29  He    c     0.187853    0.302518    0.713268    0.000000
    30  He    c     0.801071    0.470712    0.130070    0.000000
    31  He    c     0.953916    0.182828    0.043369    0.000000
    32  He    c     0.077132    0.398382    0.471860    0.000000
    33  He    c     0.121551    0.694675    0.944560    0.000000
    34  He    c     0.674656    0.088671    0.165564    0.000000
    35  He    c     0.564129    0.541076    0.358540    0.000000
    36  He    c     0.443975    0.111406    0.161984    0.000000
    37  He    c     0.189057    0.736517    0.710731    0.000000
    38  He    c     0.668016    0.023387    0.607936    0.000000
    39  He    c     0.007283    0.051241    0.823954    0.000000
    40  He    c     0.275732    0.914037    0.774399    0.000000
    41  He    c     0.535086    0.776260    0.009331    0.000000
    42  He    c     0.849130    0.801433    0.964035    0.000000
    43  He    c     0.352084    0.624589    0.848506    0.000000
    44  He    c     0.130892    0.997801    0.767237    0.000000
    45  He    c     0.525817    0.984551    0.800575    0.000000
    46  He    c     0.037564    0.578448    0.179229    0.000000
    47  He    c     0.435303    0.723122    0.064237    0.000000
    48  He    c     0.392463    0.863407    0.528761    0.000000
    49  He    c     0.587382    0.904402    0.696666    0.000000
    50  He    c     0.856671    0.892904    0.712416    0.000000
    51  He    c     0.320286    0.592701    0.037077    0.000000
    52  He    c     0.166630    0.429591    0.643321    0.000000
    53  He    c     0.611712    0.173869    0.566141    0.000000
    54  He    c     0.706166    0.566170    0.530028    0.000000
    55  He    c     0.196260    0.440643    0.547463    0.000000
    56  He    c     0.704098    0.203170    0.032675    0.000000
    57  He    c     0.902844    0.032214   -0.001445    0.000000
    58  He    c     0.577188    0.136776    0.868056    0.000000
    59  He    c     0.797400    0.816473    0.382759    0.000000
    60  He    c     0.053072    0.693106    0.769299    0.000000
    61  He    c     0.827885    0.444918    0.509689    0.000000
    62  He    c     0.713786    0.985215    0.349173    0.000000
    63  He    c     0.483796    0.204702    0.987006    0.000000
    64  He    c     0.907824    0.919855    0.973030    0.000000
    65  He    c     0.935243    0.707200    0.677050    0.000000
    66  He    c     0.717784    0.673640    0.440221    0.000000
    67  He    c     0.302381    0.813439    0.638039    0.000000
    68  He    c     0.386694    0.822527    0.683679    0.000000
    69  He    c     0.104975    0.479316    0.895346    0.000000
    70  He    c     0.516584    0.827017    0.770247    0.000000
    71  He    c     0.389601    0.524232    0.085599    0.000000
    72  He    c     0.065385    0.906072    0.025304    0.000000
    73  He    c     0.368736    0.391484    0.107461    0.000000
    74  He    c     0.683212    0.742342    0.501859    0.000000
    75  He    c     0.740759    0.438660    0.043582    0.000000
    76  He    c     0.407937    0.747955    0.809266    0.000000
    77  He    c     0.187397    0.184923    0.584848    0.000000
    78  He    c     0.089179    0.263277    0.534564    0.000000
    79  He    c     0.835957    0.337791    0.157249    0.000000
    80  He    c     0.325210    0.381114    0.973926    0.000000
--------------------------------------------------------------------------------


  Peak dynamic memory used =       2.16 MB 


  Timing analysis for GULP :

--------------------------------------------------------------------------------
  Task / Subroutine                                          Time (Seconds)
--------------------------------------------------------------------------------
  Calculation of real space energy and derivatives                0.0450
  Monte Carlo operations excluding energy                         0.0131
--------------------------------------------------------------------------------
  Total CPU time                                                  0.0688
--------------------------------------------------------------------------------


  Job Finished at 11:50.30  8th July       2020                               

