********************************************************************************
*                       GENERAL UTILITY LATTICE PROGRAM                        *
*                                 Julian Gale                                  *
*                       Curtin Institute for Computation                       *
*                    School of Molecular and Life Sciences                     *
*                    Curtin University, Western Australia                      *
********************************************************************************
* Version = 6.0.0 * Last modified =   7th July 2020                            *
********************************************************************************
*  optimise     - perform optimisation run                                     *
*  bulk_noopt   - do not optimise during bulk calculation                      *
*  property     - calculate properties for final geometry                      *
*  defect       - perform defect calculation after bulk run                    *
*  regi_before  - output region 1 at start of defect calculation               *
********************************************************************************
* Example of defect transition state calc : Magnesium vacancy migration        *
********************************************************************************


  Job Started  at 11:35.06  8th July       2020                               

  Number of CPUs =     1

  Host name      = M-A0034725                              


  Total number of configurations input =      1

********************************************************************************
*  Input for Configuration =   1                                               *
********************************************************************************

  Formula = O4Mg4                                                       

  Number of irreducible atoms/shells =      12


  Total number atoms/shells =      12

  Dimensionality = 3               :  Bulk   



  Cartesian lattice vectors (Angstroms) :

        4.212000    0.000000    0.000000
        0.000000    4.212000    0.000000
        0.000000    0.000000    4.212000

  Cell parameters (Angstroms/Degrees):

  a =       4.2120    alpha =  90.0000
  b =       4.2120    beta  =  90.0000
  c =       4.2120    gamma =  90.0000

  Initial cell volume =          74.724856 Angs**3

  Temperature of configuration =   0.00     K 

  Pressure of configuration =         0.000 GPa 

  Fractional coordinates of asymmetric unit :

--------------------------------------------------------------------------------
   No.  Atomic       x           y          z         Charge      Occupancy
        Label      (Frac)      (Frac)     (Frac)        (e)         (Frac)  
--------------------------------------------------------------------------------
      1 O     c    0.500000    0.500000    0.500000     0.86902    1.000000    
      2 O     c    0.500000    0.000000    0.000000     0.86902    1.000000    
      3 O     c    0.000000    0.500000    0.000000     0.86902    1.000000    
      4 O     c    0.000000    0.000000    0.500000     0.86902    1.000000    
      5 Mg    c    0.000000    0.000000    0.000000     2.00000    1.000000    
      6 Mg    c    0.000000    0.500000    0.500000     2.00000    1.000000    
      7 Mg    c    0.500000    0.000000    0.500000     2.00000    1.000000    
      8 Mg    c    0.500000    0.500000    0.000000     2.00000    1.000000    
      9 O     s    0.500000    0.500000    0.500000    -2.86902    1.000000    
     10 O     s    0.500000    0.000000    0.000000    -2.86902    1.000000    
     11 O     s    0.000000    0.500000    0.000000    -2.86902    1.000000    
     12 O     s    0.000000    0.000000    0.500000    -2.86902    1.000000    
--------------------------------------------------------------------------------



********************************************************************************
*  General input information                                                   *
********************************************************************************

  Species output for all configurations : 

--------------------------------------------------------------------------------
  Species    Type    Atomic    Atomic    Charge       Radii (Angs)     Library
                     Number     Mass       (e)     Cova   Ionic  VDW   Symbol
--------------------------------------------------------------------------------
    O        Core        8      16.00   0.869020   0.730  0.000  1.360          
    Mg       Core       12      24.31   2.000000   1.100  0.000  1.640          
    O        Shell       8       0.00  -2.869020   0.730  0.000  1.360          
--------------------------------------------------------------------------------


  Lattice summation method               =    Ewald          (3-D)
                                         =    Parry          (2-D)
                                         =    Saunders et al (1-D)
  Accuracy factor for lattice sums       =   12.000


  Analytic derivatives to be used

  Time limit = Infinity

  Maximum range for interatomic potentials =    100000.000000 Angstroms

  General interatomic potentials :

--------------------------------------------------------------------------------
Atom  Types   Potential      Parameter       Value         Units   Cutoffs(Ang)
  1     2                                                            Min /  Max 
--------------------------------------------------------------------------------
Mg   c O    s Buckingham    Buckingham A     1280.0000    eV        0.000  5.000
                            Buckingham rho  0.30000000    Ang       
                            Buckingham C     0.0000000    eV*Ang^6  
--------------------------------------------------------------------------------
O    s O    s Buckingham    Buckingham A     1280.0000    eV        0.000  5.000
                            Buckingham rho  0.30000000    Ang       
                            Buckingham C     27.880000    eV*Ang^6  
--------------------------------------------------------------------------------
O    c O    s Spring (c-s)  Spring k 2       74.920000    eV*Ang^-2 0.000  0.800
                            Spring k 4       0.0000000    eV*Ang^-4 
--------------------------------------------------------------------------------

********************************************************************************
*  Output for configuration   1                                                *
********************************************************************************


  Components of energy : 

--------------------------------------------------------------------------------
  Interatomic potentials     =          28.18454413 eV    
  Monopole - monopole (real) =         -57.34563089 eV    
  Monopole - monopole (recip)=        -133.83771537 eV    
  Monopole - monopole (total)=        -191.18334626 eV    
--------------------------------------------------------------------------------
  Total lattice energy       =        -162.99880213 eV    
--------------------------------------------------------------------------------
  Total lattice energy       =          -15726.8927 kJ/(mole unit cells)
--------------------------------------------------------------------------------

  Born effective charge tensors : 

-------------------------------------------------------------------------------
  Atom             x           y             z
-------------------------------------------------------------------------------
    1 O     x      -2.0071     -0.0000      0.0000
            y      -0.0000     -2.0071      0.0000
            z       0.0000      0.0000     -2.0071
-------------------------------------------------------------------------------
    2 O     x      -2.0071     -0.0000      0.0000
            y      -0.0000     -2.0071      0.0000
            z       0.0000      0.0000     -2.0071
-------------------------------------------------------------------------------
    3 O     x      -2.0071     -0.0000     -0.0000
            y      -0.0000     -2.0071      0.0000
            z       0.0000      0.0000     -2.0071
-------------------------------------------------------------------------------
    4 O     x      -2.0071     -0.0000     -0.0000
            y      -0.0000     -2.0071     -0.0000
            z      -0.0000     -0.0000     -2.0071
-------------------------------------------------------------------------------
    5 Mg    x       2.0071      0.0000     -0.0000
            y       0.0000      2.0071     -0.0000
            z      -0.0000     -0.0000      2.0071
-------------------------------------------------------------------------------
    6 Mg    x       2.0071      0.0000     -0.0000
            y       0.0000      2.0071     -0.0000
            z      -0.0000     -0.0000      2.0071
-------------------------------------------------------------------------------
    7 Mg    x       2.0071      0.0000     -0.0000
            y       0.0000      2.0071     -0.0000
            z      -0.0000     -0.0000      2.0071
-------------------------------------------------------------------------------
    8 Mg    x       2.0071      0.0000      0.0000
            y       0.0000      2.0071      0.0000
            z       0.0000      0.0000      2.0071
-------------------------------------------------------------------------------




  Elastic Constant Matrix: (Units=GPa)

-------------------------------------------------------------------------------
  Indices      1         2         3         4         5         6    
-------------------------------------------------------------------------------
       1    401.5289  192.7222  192.7222   -0.0000   -0.0000   -0.0000
       2    192.7222  401.5289  192.7222   -0.0000   -0.0000   -0.0000
       3    192.7222  192.7222  401.5289    0.0000    0.0000    0.0000
       4     -0.0000   -0.0000    0.0000  183.1294    0.0000   -0.0000
       5     -0.0000   -0.0000    0.0000    0.0000  183.1294    0.0000
       6     -0.0000   -0.0000    0.0000   -0.0000    0.0000  183.1294
-------------------------------------------------------------------------------


  Elastic Compliance Matrix: (Units=1/GPa)

-------------------------------------------------------------------------------
  Indices      1         2         3         4         5         6    
-------------------------------------------------------------------------------
       1    0.003616 -0.001173 -0.001173 -0.000000  0.000000  0.000000
       2   -0.001173  0.003616 -0.001173  0.000000 -0.000000  0.000000
       3   -0.001173 -0.001173  0.003616 -0.000000 -0.000000 -0.000000
       4   -0.000000  0.000000 -0.000000  0.005461 -0.000000  0.000000
       5    0.000000 -0.000000 -0.000000 -0.000000  0.005461 -0.000000
       6    0.000000  0.000000 -0.000000  0.000000 -0.000000  0.005461
-------------------------------------------------------------------------------

  Mechanical properties :

-------------------------------------------------------------------------------
  Convention :                    Reuss         Voigt         Hill
-------------------------------------------------------------------------------
  Bulk  Modulus (GPa)     =     262.32443     262.32443     262.32443
  Shear Modulus (GPa)     =     140.69316     151.63897     146.16606
-------------------------------------------------------------------------------
  Velocity S-wave (km/s)  =       6.26621       6.50539       6.38692
  Velocity P-wave (km/s)  =      11.20556      11.38585      11.29607
-------------------------------------------------------------------------------
  Compressibility (1/GPa) =    0.00381207
-------------------------------------------------------------------------------
  Stress axis :                     x             y             z
-------------------------------------------------------------------------------
  Youngs Moduli (GPa)     =     276.52509     276.52509     276.52509
-------------------------------------------------------------------------------
  Poissons Ratio (x)      =                     0.32431       0.32431
  Poissons Ratio (y)      =       0.32431                     0.32431
  Poissons Ratio (z)      =       0.32431       0.32431
-------------------------------------------------------------------------------


  Piezoelectric Strain Matrix: (Units=C/m**2)

-------------------------------------------------------------------------------
  Indices      1         2         3         4         5         6    
-------------------------------------------------------------------------------
       x    -0.00000   0.00000   0.00000  -0.00000   0.00000   0.00000
       y    -0.00000  -0.00000  -0.00000   0.00000  -0.00000   0.00000
       z    -0.00000  -0.00000   0.00000   0.00000   0.00000  -0.00000
-------------------------------------------------------------------------------


  Piezoelectric Stress Matrix: (Units=10**-11 C/N)

-------------------------------------------------------------------------------
  Indices      1         2         3         4         5         6    
-------------------------------------------------------------------------------
       x    -0.00000   0.00000   0.00000  -0.00000   0.00000   0.00000
       y     0.00000  -0.00000   0.00000   0.00000  -0.00000   0.00000
       z    -0.00000  -0.00000   0.00000   0.00000   0.00000  -0.00000
-------------------------------------------------------------------------------


  Static dielectric constant tensor : 

-------------------------------------------------------------------------------
              x         y         z
-------------------------------------------------------------------------------
       x     9.35941   0.00000  -0.00000
       y     0.00000   9.35941  -0.00000
       z    -0.00000  -0.00000   9.35941
--------------------------------------------------------------------------------

  High frequency dielectric constant tensor : 

-------------------------------------------------------------------------------
              x         y         z
-------------------------------------------------------------------------------
       x     2.19527   0.00000  -0.00000
       y     0.00000   2.19527  -0.00000
       z    -0.00000  -0.00000   2.19527
-------------------------------------------------------------------------------

  Static refractive indices : 

-------------------------------------------------------------------------------
    1 =    3.05932      2 =    3.05932      3 =    3.05932
-------------------------------------------------------------------------------

  High frequency refractive indices : 

-------------------------------------------------------------------------------
    1 =    1.48165      2 =    1.48165      3 =    1.48165
-------------------------------------------------------------------------------


  Time to end of properties =       0.0067 seconds

********************************************************************************
*  Defect calculation for configuration   1 :                                  *
********************************************************************************

  Total number of defects =      3

  Total charge on defect  =  -2.00

  Defect centre is at   0.2500   0.2500   0.0000  Frac

  Region 1 radius =   4.0000      Number of ions =     53

  Number of symmetry inequivalent region 1 ions  =     21

  Region 2 radius =  10.0000      Number of ions =    648

  Number of symmetry inequivalent region 2a ions =    205

  Region 2a mode = 4 : screened electrostatics due to region 1 
                       neglect correction to region 1 forces from 2a
                       region 2a displacements based on defects only

  Region 2a ions will only interact with defects in region 1

  Vacancies:

--------------------------------------------------------------------------------
    Specification type     Symbol/Number         x          y          z
--------------------------------------------------------------------------------
    Fractional                               0.000000   0.000000   0.000000
    Fractional                               0.500000   0.500000   0.000000
--------------------------------------------------------------------------------

  Interstitials:

--------------------------------------------------------------------------------
    Specification type     Symbol/Number         x          y          z
--------------------------------------------------------------------------------
    Atom/Fractional         Mg               0.200000   0.300000   0.000000
--------------------------------------------------------------------------------


  Region 1 (Absolute coordinates) :

--------------------------------------------------------------------------------
   No.   Atomic       x            y             z         Charge   Occupancy
         Label      (Angs)       (Angs)        (Angs)        (e)    
--------------------------------------------------------------------------------
     1  Mg    c      0.8424       1.2636       0.0000      2.00000   1.0000
     2  O     c      2.1060       0.0000       0.0000      0.86902   1.0000
     3  O     c      0.0000       2.1060       0.0000      0.86902   1.0000
     4  O     c      2.1060       2.1060      -2.1060      0.86902   1.0000
     5  O     c      2.1060       2.1060       2.1060      0.86902   1.0000
     6  O     c      0.0000       0.0000      -2.1060      0.86902   1.0000
     7  O     c      0.0000       0.0000       2.1060      0.86902   1.0000
     8  Mg    c      0.0000       2.1060      -2.1060      2.00000   1.0000
     9  Mg    c      0.0000       2.1060       2.1060      2.00000   1.0000
    10  Mg    c      2.1060       0.0000      -2.1060      2.00000   1.0000
    11  Mg    c      2.1060       0.0000       2.1060      2.00000   1.0000
    12  O     c      2.1060       4.2120       0.0000      0.86902   1.0000
    13  O     c     -2.1060       0.0000       0.0000      0.86902   1.0000
    14  O     c      0.0000      -2.1060       0.0000      0.86902   1.0000
    15  O     c      4.2120       2.1060       0.0000      0.86902   1.0000
    16  Mg    c      0.0000       4.2120       0.0000      2.00000   1.0000
    17  Mg    c     -2.1060       2.1060       0.0000      2.00000   1.0000
    18  Mg    c      4.2120       0.0000       0.0000      2.00000   1.0000
    19  Mg    c      2.1060      -2.1060       0.0000      2.00000   1.0000
    20  O     c      2.1060      -2.1060      -2.1060      0.86902   1.0000
    21  O     c      2.1060      -2.1060       2.1060      0.86902   1.0000
    22  O     c      4.2120       0.0000      -2.1060      0.86902   1.0000
    23  O     c      4.2120       0.0000       2.1060      0.86902   1.0000
    24  O     c     -2.1060       2.1060      -2.1060      0.86902   1.0000
    25  O     c     -2.1060       2.1060       2.1060      0.86902   1.0000
    26  O     c      0.0000       4.2120      -2.1060      0.86902   1.0000
    27  O     c      0.0000       4.2120       2.1060      0.86902   1.0000
    28  Mg    c      0.0000      -2.1060      -2.1060      2.00000   1.0000
    29  Mg    c      0.0000      -2.1060       2.1060      2.00000   1.0000
    30  Mg    c      4.2120       2.1060      -2.1060      2.00000   1.0000
    31  Mg    c      4.2120       2.1060       2.1060      2.00000   1.0000
    32  Mg    c      2.1060       4.2120      -2.1060      2.00000   1.0000
    33  Mg    c      2.1060       4.2120       2.1060      2.00000   1.0000
    34  Mg    c     -2.1060       0.0000      -2.1060      2.00000   1.0000
    35  Mg    c     -2.1060       0.0000       2.1060      2.00000   1.0000
    36  O     s      2.1060       0.0000       0.0000     -2.86902   1.0000
    37  O     s      0.0000       2.1060       0.0000     -2.86902   1.0000
    38  O     s      2.1060       2.1060      -2.1060     -2.86902   1.0000
    39  O     s      2.1060       2.1060       2.1060     -2.86902   1.0000
    40  O     s      0.0000       0.0000      -2.1060     -2.86902   1.0000
    41  O     s      0.0000       0.0000       2.1060     -2.86902   1.0000
    42  O     s      2.1060       4.2120       0.0000     -2.86902   1.0000
    43  O     s     -2.1060       0.0000       0.0000     -2.86902   1.0000
    44  O     s      0.0000      -2.1060       0.0000     -2.86902   1.0000
    45  O     s      4.2120       2.1060       0.0000     -2.86902   1.0000
    46  O     s      2.1060      -2.1060      -2.1060     -2.86902   1.0000
    47  O     s      2.1060      -2.1060       2.1060     -2.86902   1.0000
    48  O     s      4.2120       0.0000      -2.1060     -2.86902   1.0000
    49  O     s      4.2120       0.0000       2.1060     -2.86902   1.0000
    50  O     s     -2.1060       2.1060      -2.1060     -2.86902   1.0000
    51  O     s     -2.1060       2.1060       2.1060     -2.86902   1.0000
    52  O     s      0.0000       4.2120      -2.1060     -2.86902   1.0000
    53  O     s      0.0000       4.2120       2.1060     -2.86902   1.0000
------------------------------------------------------------------------------------



  Symmetry reduced region 1 (Relative to defect centre) :

--------------------------------------------------------------------------------
   No.   Atomic       x            y             z       Radius  Multiplicity   
         Label      (Angs)       (Angs)        (Angs)    (Angs)     
--------------------------------------------------------------------------------
     1  Mg    c     -0.2106 *     0.2106       0.0000    0.0000     1    Defect
     2  O     c      1.0530 *    -1.0530       0.0000    0.0000     1          
     3  O     c     -1.0530 *     1.0530       0.0000    0.0000     1          
     4  O     c      1.0530 *     1.0530 *    -2.1060 *  0.0000     4          
     5  Mg    c     -1.0530 *     1.0530      -2.1060 *  0.0000     2          
     6  Mg    c      1.0530 *    -1.0530      -2.1060 *  0.0000     2          
     7  O     c      1.0530 *     3.1590 *     0.0000    0.0000     2          
     8  O     c     -1.0530 *    -3.1590 *     0.0000    0.0000     2          
     9  Mg    c     -1.0530 *     3.1590 *     0.0000    0.0000     2          
    10  Mg    c      3.1590 *    -1.0530 *     0.0000    0.0000     2          
    11  O     c      1.0530 *    -3.1590 *    -2.1060 *  0.0000     4          
    12  O     c     -3.1590 *     1.0530 *    -2.1060 *  0.0000     4          
    13  Mg    c     -1.0530 *    -3.1590 *    -2.1060 *  0.0000     4          
    14  Mg    c      1.0530 *     3.1590 *    -2.1060 *  0.0000     4          
    15  O     s      1.0530 *    -1.0530       0.0000    0.0000     1          
    16  O     s     -1.0530 *     1.0530       0.0000    0.0000     1          
    17  O     s      1.0530 *     1.0530 *    -2.1060 *  0.0000     4          
    18  O     s      1.0530 *     3.1590 *     0.0000    0.0000     2          
    19  O     s     -1.0530 *    -3.1590 *     0.0000    0.0000     2          
    20  O     s      1.0530 *    -3.1590 *    -2.1060 *  0.0000     4          
    21  O     s     -3.1590 *     1.0530 *    -2.1060 *  0.0000     4          
--------------------------------------------------------------------------------


  Constraints on symmetry reduced coordinates :

--------------------------------------------------------------------------------
  Constraint no.      Unconstrained     Constrained    Coefficient    
                         Variable         Variable
--------------------------------------------------------------------------------
           1                 1 x             1 y        -1.00000
           2                 2 x             2 y        -1.00000
           3                 3 x             3 y        -1.00000
           4                 5 x             5 y        -1.00000
           5                 6 x             6 y        -1.00000
           6                15 x            15 y        -1.00000
           7                16 x            16 y        -1.00000
--------------------------------------------------------------------------------


  Components of defect energy : 

--------------------------------------------------------------------------------
  Region 1 - region 1                   =     49.01703588 eV
  Region 1 - region 2a (unrelaxed)      =      0.61256255 eV
  Region 1 - 2a (relaxed - correction)  =     -7.17572847 eV
  Region 1 (Total)                      =     42.45386995 eV
  Region 2a                             =      3.58724709 eV
  Region 2b                             =     -2.53878863 eV
--------------------------------------------------------------------------------
  Total defect energy                   =     43.50232842 eV
--------------------------------------------------------------------------------

  Largest displacement in region 2 =   0.0517 Angstroms


  Number of variables =       45

  Maximum number of calculations  =        1000
  Maximum Hessian update interval =          10
  Maximum step size               =   1.0000000
  Maximum parameter tolerance     =   0.0000100
  Maximum function  tolerance     =   0.0000100
  Maximum gradient  tolerance     =   0.0010000

  Symmetry adapted optimisation

  Symmetry to be used for second derivatives

  Newton-Raphson optimiser to be used

  BFGS hessian update to be used

  Lower half triangular hessian to be used

  Start of defect optimisation :

  Cycle:      0 Defect Energy:  43.502328  Gnorm:     2.591630  CPU:    0.027
  ** Hessian calculated **
  Cycle:      1 Defect Energy:  28.848076  Gnorm:     0.623628  CPU:    0.069
  ** Hessian calculated **
  Cycle:      2 Defect Energy:  26.942695  Gnorm:     0.126569  CPU:    0.105
  Cycle:      3 Defect Energy:  26.829430  Gnorm:     0.037940  CPU:    0.135
  Cycle:      4 Defect Energy:  26.823680  Gnorm:     0.027161  CPU:    0.141
  Cycle:      5 Defect Energy:  26.820384  Gnorm:     0.019215  CPU:    0.147
  Cycle:      6 Defect Energy:  26.818744  Gnorm:     0.013525  CPU:    0.153
  Cycle:      7 Defect Energy:  26.817929  Gnorm:     0.009524  CPU:    0.160
  Cycle:      8 Defect Energy:  26.817531  Gnorm:     0.006691  CPU:    0.166
  Cycle:      9 Defect Energy:  26.817341  Gnorm:     0.004697  CPU:    0.172
  Cycle:     10 Defect Energy:  26.817252  Gnorm:     0.003294  CPU:    0.179
  Cycle:     11 Defect Energy:  26.817212  Gnorm:     0.002309  CPU:    0.186
  ** Hessian calculated **
  Cycle:     12 Defect Energy:  26.817195  Gnorm:     0.001617  CPU:    0.199
  Cycle:     13 Defect Energy:  26.817189  Gnorm:     0.001133  CPU:    0.205
  Cycle:     14 Defect Energy:  26.817187  Gnorm:     0.000793  CPU:    0.212
  Cycle:     15 Defect Energy:  26.817187  Gnorm:     0.000555  CPU:    0.218
  Cycle:     16 Defect Energy:  26.817188  Gnorm:     0.000389  CPU:    0.225


  **** Optimisation achieved ****


  Final defect energy  =       26.81718833
  Final defect Gnorm   =        0.00027229

  Components of defect energy : 

--------------------------------------------------------------------------------
  Region 1 - region 1                   =     29.36249598 eV
  Region 1 - region 2a (unrelaxed)      =      2.66820999 eV
  Region 1 - 2a (relaxed - correction)  =     -5.35172278 eV
  Region 1 (Total)                      =     26.67898319 eV
  Region 2a                             =      2.67551960 eV
  Region 2b                             =     -2.53731445 eV
--------------------------------------------------------------------------------
  Total defect energy                   =     26.81718833 eV
--------------------------------------------------------------------------------

  Largest displacement in region 2 =   0.0515 Angstroms

  Final coordinates of region 1 :

--------------------------------------------------------------------------------
   No.  Atomic        x           y           z          Radius      Charge
        Label       (Angs)      (Angs)      (Angs)       (Angs)       (e) 
--------------------------------------------------------------------------------
     1  Mg    c     1.052903    1.053097    0.000000    0.000000    2.000000
     2  O     c     2.303998   -0.197998    0.000000    0.000000    0.869020
     3  O     c    -0.197997    2.303997    0.000000    0.000000    0.869020
     4  O     c     2.051237    2.051255   -2.134220    0.000000    0.869020
     5  O     c     2.051237    0.054763    2.134220    0.000000    0.869020
     6  O     c     0.054745    2.051255   -2.134220    0.000000    0.869020
     7  O     c     0.054745    0.054763    2.134220    0.000000    0.869020
     8  Mg    c    -0.027989    2.133989   -2.152341    0.000000    2.000000
     9  Mg    c    -0.027989    2.133989    2.152341    0.000000    2.000000
    10  Mg    c     2.133984   -0.027984   -2.152280    0.000000    2.000000
    11  Mg    c     2.133984   -0.027984    2.152280    0.000000    2.000000
    12  O     c     2.104223    4.341051    0.000000    0.000000    0.869020
    13  O     c    -2.235051    0.001777    0.000000    0.000000    0.869020
    14  O     c     0.001767   -2.235056    0.000000    0.000000    0.869020
    15  O     c     4.341056   -2.235056    0.000000    0.000000    0.869020
    16  Mg    c     0.037675    2.068325    0.000000    0.000000    2.000000
    17  Mg    c    -2.108211    2.068325    0.000000    0.000000    2.000000
    18  Mg    c     4.214219    0.037676    0.000000    0.000000    2.000000
    19  Mg    c     2.068324   -2.108219    0.000000    0.000000    2.000000
    20  O     c     2.127730   -2.138337   -2.154074    0.000000    0.869020
    21  O     c     2.127730   -2.138337    2.154074    0.000000    0.869020
    22  O     c     4.244337   -0.021730   -2.154074    0.000000    0.869020
    23  O     c     4.244337   -0.021730    2.154074    0.000000    0.869020
    24  O     c    -2.138334    2.127737   -2.154073    0.000000    0.869020
    25  O     c    -2.138334    2.127737    2.154073    0.000000    0.869020
    26  O     c    -0.021737    4.244334   -2.154073    0.000000    0.869020
    27  O     c    -0.021737    4.244334    2.154073    0.000000    0.869020
    28  Mg    c     0.009948   -2.017456   -1.996576    0.000000    2.000000
    29  Mg    c     0.009948   -2.017456    1.996576    0.000000    2.000000
    30  Mg    c     4.123456    2.096052   -1.996576    0.000000    2.000000
    31  Mg    c     4.123456    2.096052    1.996576    0.000000    2.000000
    32  Mg    c     2.096058    4.123455   -1.996577    0.000000    2.000000
    33  Mg    c     2.096058    4.123455    1.996577    0.000000    2.000000
    34  Mg    c    -2.017455    0.009942   -1.996577    0.000000    2.000000
    35  Mg    c    -2.017455    0.009942    1.996577    0.000000    2.000000
    36  O     s     2.286953   -0.180953    0.000000    0.000000   -2.869020
    37  O     s    -0.180938    2.286938    0.000000    0.000000   -2.869020
    38  O     s     2.050722    2.050742   -2.155249    0.000000   -2.869020
    39  O     s     2.050722    2.050742    2.155249    0.000000   -2.869020
    40  O     s     0.055258    0.055278   -2.155249    0.000000   -2.869020
    41  O     s     0.055258    0.055278    2.155249    0.000000   -2.869020
    42  O     s     2.100408    4.371615    0.000000    0.000000   -2.869020
    43  O     s    -2.265615    0.005592    0.000000    0.000000   -2.869020
    44  O     s     0.005581   -2.265620    0.000000    0.000000   -2.869020
    45  O     s     4.371620    2.100419    0.000000    0.000000   -2.869020
    46  O     s     2.130583   -2.139223   -2.159528    0.000000   -2.869020
    47  O     s     2.130583   -2.139223    2.159528    0.000000   -2.869020
    48  O     s     4.245223   -0.024583   -2.159528    0.000000   -2.869020
    49  O     s     4.245223   -0.024583    2.159528    0.000000   -2.869020
    50  O     s    -2.139218    2.130590   -2.159528    0.000000   -2.869020
    51  O     s    -2.139218    2.130590    2.159528    0.000000   -2.869020
    52  O     s    -0.024590    4.245218   -2.159528    0.000000   -2.869020
    53  O     s    -0.024590    4.245218    2.159528    0.000000   -2.869020
--------------------------------------------------------------------------------

  Final coordinates of symmetry reduced region 1 (relative to defect centre):

--------------------------------------------------------------------------------
   No.  Atomic        x           y           z          Charge
        Label       (Angs)      (Angs)      (Angs)         (e) 
--------------------------------------------------------------------------------
     1  Mg    c    -0.000097    0.000097    0.000000    2.000000
     2  O     c     1.250998   -1.250998    0.000000    0.869020
     3  O     c    -1.250997    1.250997    0.000000    0.869020
     4  O     c     0.998237    0.998255   -2.134220    0.869020
     5  Mg    c    -1.080989    1.080989   -2.152341    2.000000
     6  Mg    c     1.080984   -1.080984   -2.152280    2.000000
     7  O     c     1.051223    3.288051    0.000000    0.869020
     8  O     c    -1.051233   -3.288056    0.000000    0.869020
     9  Mg    c    -1.015325    1.015325    0.000000    2.000000
    10  Mg    c     3.161219   -1.015324    0.000000    2.000000
    11  O     c     1.074730   -3.191337   -2.154074    0.869020
    12  O     c    -3.191334    1.074737   -2.154073    0.869020
    13  Mg    c    -1.043052   -3.070456   -1.996576    2.000000
    14  Mg    c     1.043058    3.070455   -1.996577    2.000000
    15  O     s     1.233953   -1.233953    0.000000   -2.869020
    16  O     s    -1.233938    1.233938    0.000000   -2.869020
    17  O     s     0.997722    0.997742   -2.155249   -2.869020
    18  O     s     1.047408    3.318615    0.000000   -2.869020
    19  O     s    -1.047419   -3.318620    0.000000   -2.869020
    20  O     s     1.077583   -3.192223   -2.159528   -2.869020
    21  O     s    -3.192218    1.077590   -2.159528   -2.869020
--------------------------------------------------------------------------------


  Final derivatives for region 1 :

--------------------------------------------------------------------------------
   No.  Atomic          x             y             z            Radius
        Label       (eV/Angs)     (eV/Angs)     (eV/Angs)       (eV/Angs)
--------------------------------------------------------------------------------
     1  Mg    c      -0.009823      0.000000      0.000000      0.000000
     2  O     c       0.000325      0.000000      0.000000      0.000000
     3  O     c       0.001155      0.000000      0.000000      0.000000
     4  O     c      -0.000056      0.000045     -0.000028      0.000000
     5  Mg    c      -0.000096      0.000000      0.000052      0.000000
     6  Mg    c       0.000095      0.000000     -0.000107      0.000000
     7  O     c      -0.000014      0.000020      0.000000      0.000000
     8  O     c      -0.000012     -0.000041      0.000000      0.000000
     9  Mg    c      -0.000021     -0.000266      0.000000      0.000000
    10  Mg    c       0.000787      0.000058      0.000000      0.000000
    11  O     c      -0.000015      0.000010      0.000007      0.000000
    12  O     c       0.000049     -0.000011      0.000051      0.000000
    13  Mg    c       0.000005     -0.000068     -0.000132      0.000000
    14  Mg    c      -0.000047     -0.000021     -0.000054      0.000000
    15  O     s      -0.000099      0.000000      0.000000      0.000000
    16  O     s       0.007158      0.000000      0.000000      0.000000
    17  O     s       0.000218     -0.000104     -0.000002      0.000000
    18  O     s       0.000039     -0.000192      0.000000      0.000000
    19  O     s       0.000038      0.000194      0.000000      0.000000
    20  O     s      -0.000013      0.000004      0.000008      0.000000
    21  O     s      -0.000189      0.000067     -0.000116      0.000000
--------------------------------------------------------------------------------


  Time to end of optimisation  =        0.2316 seconds


  Peak dynamic memory used =       2.85 MB 


  Timing analysis for GULP :

--------------------------------------------------------------------------------
  Task / Subroutine                                          Time (Seconds)
--------------------------------------------------------------------------------
  Calculation of reciprocal space energy and derivatives          0.0002
  Calculation of real space energy and derivatives                0.0013
  Calculation for region 1 energy and derivatives (2-b)           0.0831
  Calculation for region 2a energy                                0.1358
  Calculation for region 2b energy                                0.0022
  Calculation and manipulation of Hessian matrix                  0.0009
--------------------------------------------------------------------------------
  Total CPU time                                                  0.2316
--------------------------------------------------------------------------------


  Job Finished at 11:35.07  8th July       2020                               

