********************************************************************************
*                       GENERAL UTILITY LATTICE PROGRAM                        *
*                                 Julian Gale                                  *
*                       Curtin Institute for Computation                       *
*                    School of Molecular and Life Sciences                     *
*                    Curtin University, Western Australia                      *
********************************************************************************
* Version = 6.0.0 * Last modified =   7th July 2020                            *
********************************************************************************
*  optimise     - perform optimisation run                                     *
*  conp         - constant pressure calculation                                *
*  phonon       - calculate phonons for final geometry                         *
*  eckart       - remove rotation/translation from vibrations of molecules     *
*  eigenvectors - output phonon eigenvectors                                   *
*  intensity    - calculate phonon eigenvectors and estimate IR intensities    *
*  molecule     - molecule option activated, Coulomb subtract within molecule  *
********************************************************************************

  Job Started  at 11:50.42  8th July       2020                               

  Number of CPUs =     1

  Host name      = M-A0034725                              


  Total number of configurations input =      1

********************************************************************************
*  Input for Configuration =   1                                               *
********************************************************************************

  Formula = OH2                                                         

  Number of irreducible atoms/shells =       3


  Total number atoms/shells =       3

  Dimensionality = 0               :  Cluster


  Charge on cluster =   0.000000


  Initial cluster dipoles : x =      0.000000 e.Angs
                            y =      0.000000 e.Angs
                            z =      0.000000 e.Angs

  Temperature of configuration =   0.00     K 

  Symmetry number =      1

  Cartesian coordinates of cluster :

--------------------------------------------------------------------------------
   No.  Atomic       x           y          z         Charge      Occupancy
        Label      (Angs)      (Angs)     (Angs)        (e)         (Frac)  
--------------------------------------------------------------------------------
      1 O2    c      0.2000      0.0000      0.0000     0.00000    1.000000    
      2 H2    c      0.8000 *    0.6000 *    0.3000 *   0.00000    1.000000    
      3 H2    c     -0.8000 *    0.6000 *    0.1000 *   0.00000    1.000000    
--------------------------------------------------------------------------------



  Molecule list generated from bond lengths :

  Total number of molecules =     1

--------------------------------------------------------------------------------
Molecule No./:  Atoms
Periodicity  :  
--------------------------------------------------------------------------------
     1  0    : O2   c     1 H2   c     2 H2   c     3
--------------------------------------------------------------------------------

  Brillouin zone sampling points :

--------------------------------------------------------------------------------
  Point number          x          y          z            Weight
--------------------------------------------------------------------------------
        1           0.000000   0.000000   0.000000     1.00000000
--------------------------------------------------------------------------------


********************************************************************************
*  General input information                                                   *
********************************************************************************

  Species output for all configurations : 

--------------------------------------------------------------------------------
  Species    Type    Atomic    Atomic    Charge       Radii (Angs)     Library
                     Number     Mass       (e)     Cova   Ionic  VDW   Symbol
--------------------------------------------------------------------------------
    O2       Core        8      16.00   0.000000   0.730  0.000  1.360          
    H2       Core        1       1.01   0.000000   0.370  0.000  1.080          
--------------------------------------------------------------------------------


  Accuracy factor for short range sums = 12.000

  Electrostatics method = Direct Coulomb

  Analytic derivatives to be used

  Time limit = Infinity

  Maximum range for interatomic potentials =    100000.000000 Angstroms

  Intramolecular potentials :

--------------------------------------------------------------------------------
Atom  Types   Potential      Parameter       Value         Units   Cutoffs(Ang)
  1     2                                                            Min /  Max 
--------------------------------------------------------------------------------
H2   c O2   c Harmonic      Harmonic k2      45.930000    eV*Ang^-2 0.000 1 Bond
                            Harmonic r0      1.0120000    Ang       
                            Harmonic k3      0.0000000    eV*Ang^-3 
                            Harmonic k4      0.0000000    eV*Ang^-4 
--------------------------------------------------------------------------------

  Intramolecular Three-body potentials :

--------------------------------------------------------------------------------
  Atoms       Potential      Parameter       Value         Units   Cutoffs(Ang)
  1 / 2 / 3                                                          Min /  Max 
--------------------------------------------------------------------------------
O2    core    Harmonic      Three-body cnst  3.2913600    eV*rad^-2 0.000 1 Bond
H2    core                  Three-body angl  113.24000    degrees   0.000 1 Bond
H2    core                  Three-body k4    0.0000000    eV*rad^-4 0.000 1 Bond
                            Three-body k3    0.0000000    eV*rad^-3 
--------------------------------------------------------------------------------

********************************************************************************
*  Output for configuration   1                                                *
********************************************************************************


  Components of energy : 

--------------------------------------------------------------------------------
  Interatomic potentials     =           0.86478699 eV    
  Three-body potentials      =           0.06910562 eV    
  Monopole - monopole (real) =           0.00000000 eV    
--------------------------------------------------------------------------------
  Total lattice energy       =           0.93389261 eV    
--------------------------------------------------------------------------------
  Total lattice energy       =              90.1064 kJ/mol
--------------------------------------------------------------------------------


  Number of variables =        6

  Maximum number of calculations  =          1000
  Maximum Hessian update interval =            10
  Maximum step size               =   1.000000000
  Maximum parameter tolerance     =   0.000010000
  Maximum function  tolerance     =   0.000010000
  Maximum gradient  tolerance     =   0.001000000
  Maximum gradient  component     =   0.010000000

  Symmetry not applied to optimisation

  Newton-Raphson optimiser to be used

  BFGS hessian update to be used

  Lower half triangular hessian to be used

  Start of cluster optimisation :

  Cycle:      0 Energy:         0.933893  Gnorm:      1.493811  CPU:    0.006
  ** Hessian calculated **
  Cycle:      1 Energy:         0.087172  Gnorm:      0.203745  CPU:    0.006
  ** Hessian calculated **
  Cycle:      2 Energy:         0.000838  Gnorm:      0.046177  CPU:    0.006
  Cycle:      3 Energy:         0.000106  Gnorm:      0.015835  CPU:    0.006
  Cycle:      4 Energy:         0.000008  Gnorm:      0.004078  CPU:    0.006


  **** Optimisation achieved ****


  Final energy =       0.00000028 eV
  Final Gnorm  =       0.00078995

  Components of energy : 

--------------------------------------------------------------------------------
  Interatomic potentials     =           0.00000024 eV    
  Three-body potentials      =           0.00000005 eV    
  Monopole - monopole (real) =           0.00000000 eV    
--------------------------------------------------------------------------------
  Total lattice energy       =           0.00000028 eV    
--------------------------------------------------------------------------------
  Total lattice energy       =               0.0000 kJ/mol
--------------------------------------------------------------------------------

  Final cartesian coordinates of atoms :

--------------------------------------------------------------------------------
   No.  Atomic        x           y          z          Radius
        Label       (Angs)      (Angs)     (Angs)       (Angs) 
--------------------------------------------------------------------------------
     1  O2    c     0.200000    0.000000    0.000000    0.000000
     2  H2    c     0.847883    0.697903    0.342699    0.000000
     3  H2    c    -0.761906    0.314712   -0.002221    0.000000
--------------------------------------------------------------------------------


  Final Cartesian derivatives :

--------------------------------------------------------------------------------
   No.  Atomic          x             y             z           Radius
        Label       (eV/Angs)     (eV/Angs)    (eV/Angs)      (eV/Angs)
--------------------------------------------------------------------------------
      1 O2    c       0.000000      0.000000      0.000000      0.000000
      2 H2    c       0.002147      0.001518      0.000838      0.000000
      3 H2    c      -0.003783      0.000703     -0.000209      0.000000
--------------------------------------------------------------------------------
  Maximum abs         0.003783      0.001518      0.000838      0.000000
--------------------------------------------------------------------------------



  Moment of inertia tensor (10^-46 x kgm^2): 

-------------------------------------------------------------------------------
                x           y           z           Principal axis system
-------------------------------------------------------------------------------
       x          0.11       -0.03       -0.04            0.092323
       y         -0.03        0.24       -0.04            0.239603
       z         -0.04       -0.04        0.31            0.331925
-------------------------------------------------------------------------------
  Centre of mass (Ang) =     0.182399     0.056756     0.019083
-------------------------------------------------------------------------------


  Vibrational Frequency Calculation : 

--------------------------------------------------------------------------------

  Frequencies (cm-1) and Eigenvectors : 

  Frequency      -0.0000   -0.0000    0.0000    0.0000    0.0000    0.0001
  IR Intensity    0.0000    0.0000    0.0000    0.0000    0.0000    0.0000
     in X         0.0000    0.0000    0.0000    0.0000    0.0000    0.0000
     in Y         0.0000    0.0000    0.0000    0.0000    0.0000    0.0000
     in Z         0.0000    0.0000    0.0000    0.0000    0.0000    0.0000
  Raman Intsty    0.0000    0.0000    0.0000    0.0000    0.0000    0.0000

     1 x        0.910211 -0.001686  0.215042  0.189785  0.073088 -0.040060
     1 y       -0.073258 -0.822376  0.455555 -0.095735 -0.061443 -0.031611
     1 z        0.161767 -0.461583 -0.850421  0.153431  0.002520  0.012653
     2 x        0.271633  0.042659 -0.051092 -0.410683 -0.233529  0.146535
     2 y       -0.040098 -0.267446  0.114836  0.427498  0.162503  0.305201
     2 z        0.003630 -0.073548 -0.015702 -0.014476  0.114468 -0.930591
     3 x        0.249747  0.008814 -0.010650 -0.179610  0.029580  0.020265
     3 y        0.045749 -0.177675 -0.081627 -0.717773  0.012162  0.084063
     3 z        0.010400 -0.015320  0.013810  0.179421 -0.946471 -0.095596


  Frequency    1370.0376 3584.0135 3668.0858
  IR Intensity    0.0000    0.0000    0.0000
     in X         0.0000    0.0000    0.0000
     in Y         0.0000    0.0000    0.0000
     in Z         0.0000    0.0000    0.0000
  Raman Intsty    0.0001    0.5875    0.0000

     1 x       -0.076872 -0.054821  0.270906
     1 y        0.247891  0.176784  0.064491
     1 z        0.083350  0.059441  0.058047
     2 x        0.543984 -0.439175 -0.433963
     2 y       -0.400250 -0.482325 -0.467473
     2 z       -0.082096 -0.235769 -0.229548
     3 x       -0.238020  0.657370 -0.644283
     3 y       -0.586393 -0.221301  0.210790
     3 z       -0.249650 -0.000817 -0.001489


--------------------------------------------------------------------------------
  Vibrational properties (for cluster):  Temperature  =       0.000 K
--------------------------------------------------------------------------------
  Zero point energy            =        0.534508 eV
--------------------------------------------------------------------------------

  Time to end of optimisation =       0.0067 seconds


  Peak dynamic memory used =       1.78 MB 


  Timing analysis for GULP :

--------------------------------------------------------------------------------
  Task / Subroutine                                          Time (Seconds)
--------------------------------------------------------------------------------
  Calculation of three-body energy and derivatives                0.0001
  Calculation of phonons                                          0.0002
--------------------------------------------------------------------------------
  Total CPU time                                                  0.0068
--------------------------------------------------------------------------------


  Job Finished at 11:50.42  8th July       2020                               

