********************************************************************************
*                       GENERAL UTILITY LATTICE PROGRAM                        *
*                                 Julian Gale                                  *
*                       Curtin Institute for Computation                       *
*                    School of Molecular and Life Sciences                     *
*                    Curtin University, Western Australia                      *
********************************************************************************
* Version = 6.0.0 * Last modified =   7th July 2020                            *
********************************************************************************
*  optimise     - perform optimisation run                                     *
*  ocell        - use cell parameters as the optimisation variables            *
*  phonon       - calculate phonons for final geometry                         *
*  nomodcoord   - do not mod input coordinates                                 *
*  rfo          - optimisation step to be determined by RFO method             *
********************************************************************************

  Job Started  at 11:59.34  8th July       2020                               

  Number of CPUs =     1

  Host name      = M-A0034725                              


  Total number of configurations input =      1

********************************************************************************
*  Input for Configuration =   1                                               *
********************************************************************************

  Formula = Mg8O8                                                       

  Number of irreducible atoms/shells =      16


  Total number atoms/shells =      16

  Dimensionality = 3               :  Bulk   



  Cartesian lattice vectors (Angstroms) :

        4.225106    0.000000    0.000000
        0.000000    4.225106    0.000000
        0.000000    0.000000    8.500000

  Cell parameters (Angstroms/Degrees):

  a =       4.2251    alpha =  90.0000
  b =       4.2251    beta  =  90.0000
  c =       8.5000    gamma =  90.0000

  Initial cell volume =         151.737926 Angs**3

  Temperature of configuration =   0.00     K 

  Pressure of configuration =         0.000 GPa 

  Fractional coordinates of asymmetric unit :

--------------------------------------------------------------------------------
   No.  Atomic       x           y          z         Charge      Occupancy
        Label      (Frac)      (Frac)     (Frac)        (e)         (Frac)  
--------------------------------------------------------------------------------
      1 Mg    c    0.000000    0.000000    0.000000     2.00000    1.000000    
      2 Mg    c    0.000000 *  0.000000 *  0.500000 *   2.00000    1.000000    
      3 Mg    c    0.000000 *  0.500000 *  0.250000 *   2.00000    1.000000    
      4 Mg    c    0.000000 *  0.500000 *  0.750000 *   2.00000    1.000000    
      5 Mg    c    0.500000 *  0.000000 *  0.250000 *   2.00000    1.000000    
      6 Mg    c    0.500000 *  0.000000 *  0.750000 *   2.00000    1.000000    
      7 Mg    c    0.500000 *  0.500000 *  0.000000 *   2.00000    1.000000    
      8 Mg    c    0.500000 *  0.500000 *  0.500000 *   2.00000    1.000000    
      9 O     c    0.500000 *  0.500000 *  0.250000 *  -2.00000    1.000000    
     10 O     c    0.500000 *  0.500000 *  0.750000 *  -2.00000    1.000000    
     11 O     c    0.500000 *  0.000000 *  0.000000 *  -2.00000    1.000000    
     12 O     c    0.500000 *  0.000000 *  0.500000 *  -2.00000    1.000000    
     13 O     c    0.000000 *  0.500000 *  0.000000 *  -2.00000    1.000000    
     14 O     c    0.000000 *  0.500000 *  0.500000 *  -2.00000    1.000000    
     15 O     c    0.000000 *  0.000000 *  0.250000 *  -2.00000    1.000000    
     16 O     c    0.000000 *  0.000000 *  0.750000 *  -2.00000    1.000000    
--------------------------------------------------------------------------------


  Brillouin zone sampling points :

--------------------------------------------------------------------------------
  Point number          x          y          z            Weight
--------------------------------------------------------------------------------
        1           0.000000   0.000000   0.000000     1.00000000
--------------------------------------------------------------------------------


********************************************************************************
*  General input information                                                   *
********************************************************************************

  Species output for all configurations : 

--------------------------------------------------------------------------------
  Species    Type    Atomic    Atomic    Charge       Radii (Angs)     Library
                     Number     Mass       (e)     Cova   Ionic  VDW   Symbol
--------------------------------------------------------------------------------
    Mg       Core       12      24.31   2.000000   1.100  0.000  1.640          
    O        Core        8      16.00  -2.000000   0.730  0.000  1.360          
--------------------------------------------------------------------------------


  Lattice summation method               =    Ewald          (3-D)
                                         =    Parry          (2-D)
                                         =    Saunders et al (1-D)
  Accuracy factor for lattice sums       =   12.000


  Analytic derivatives to be used

  Time limit = Infinity

  Maximum range for interatomic potentials =    100000.000000 Angstroms

  General interatomic potentials :

--------------------------------------------------------------------------------
Atom  Types   Potential      Parameter       Value         Units   Cutoffs(Ang)
  1     2                                                            Min /  Max 
--------------------------------------------------------------------------------
O    c Mg   c Buckingham    Buckingham A     1346.6000    eV        0.000  8.000
                            Buckingham rho  0.29840000    Ang       
                            Buckingham C     0.0000000    eV*Ang^6  
--------------------------------------------------------------------------------
O    c O    c Buckingham    Buckingham A     22764.300    eV        0.000  8.000
                            Buckingham rho  0.14900000    Ang       
                            Buckingham C     20.370000    eV*Ang^6  
--------------------------------------------------------------------------------

********************************************************************************
*  Output for configuration   1                                                *
********************************************************************************


  Repeat cell scan for     41 points

  Scan vector for cell parameters:

  a     =     0.000000  b    =     0.000000  c     =     0.000000
  alpha =    20.000000  beta =    20.000000  gamma =     0.000000


################################################################################
#  Output for cell point     0                                                 #
################################################################################


  Components of energy : 

--------------------------------------------------------------------------------
  Interatomic potentials     =          52.51578835 eV    
  Monopole - monopole (real) =        -162.80688474 eV    
  Monopole - monopole (recip)=        -217.63469762 eV    
  Monopole - monopole (total)=        -380.44158236 eV    
--------------------------------------------------------------------------------
  Total lattice energy       =        -327.92579402 eV    
--------------------------------------------------------------------------------
  Total lattice energy       =          -31639.8263 kJ/(mole unit cells)
--------------------------------------------------------------------------------


  Number of variables =       48

  Maximum number of calculations  =          1000
  Maximum Hessian update interval =            10
  Maximum step size               =   1.000000000
  Maximum parameter tolerance     =   0.000010000
  Maximum function  tolerance     =   0.000010000
  Maximum gradient  tolerance     =   0.001000000
  Maximum gradient  component     =   0.010000000

  Symmetry not applied to optimisation

  Cell parameters to be optimised directly

  RFO method to be used

  DFP hessian update to be used

  Lower half triangular hessian to be used

  Start of bulk optimisation :

  Cycle:      0 Energy:      -327.925794  Gnorm:      0.007951  CPU:    0.011
  ** Hessian has required structure
  Cycle:      1 Energy:      -327.931717  Gnorm:      0.000093  CPU:    0.015
  ** Hessian has required structure


  **** Optimisation achieved ****


  Final energy =    -327.93171735 eV
  Final Gnorm  =       0.00000159

  Components of energy : 

--------------------------------------------------------------------------------
  Interatomic potentials     =          53.24874979 eV    
  Monopole - monopole (real) =        -163.11927212 eV    
  Monopole - monopole (recip)=        -218.06119502 eV    
  Monopole - monopole (total)=        -381.18046714 eV    
--------------------------------------------------------------------------------
  Total lattice energy       =        -327.93171735 eV    
--------------------------------------------------------------------------------
  Total lattice energy       =          -31640.3978 kJ/(mole unit cells)
--------------------------------------------------------------------------------

  Final fractional coordinates of atoms :

--------------------------------------------------------------------------------
   No.  Atomic        x           y          z          Radius
        Label       (Frac)      (Frac)     (Frac)       (Angs) 
--------------------------------------------------------------------------------
     1  Mg    c     0.000000    0.000000    0.000000    0.000000
     2  Mg    c    -0.000000   -0.000000    0.500000    0.000000
     3  Mg    c    -0.000000    0.500000    0.250000    0.000000
     4  Mg    c    -0.000000    0.500000    0.750000    0.000000
     5  Mg    c     0.500000   -0.000000    0.250000    0.000000
     6  Mg    c     0.500000   -0.000000    0.750000    0.000000
     7  Mg    c     0.500000    0.500000   -0.000000    0.000000
     8  Mg    c     0.500000    0.500000    0.500000    0.000000
     9  O     c     0.500000    0.500000    0.250000    0.000000
    10  O     c     0.500000    0.500000    0.750000    0.000000
    11  O     c     0.500000   -0.000000   -0.000000    0.000000
    12  O     c     0.500000   -0.000000    0.500000    0.000000
    13  O     c    -0.000000    0.500000   -0.000000    0.000000
    14  O     c    -0.000000    0.500000    0.500000    0.000000
    15  O     c    -0.000000   -0.000000    0.250000    0.000000
    16  O     c    -0.000000   -0.000000    0.750000    0.000000
--------------------------------------------------------------------------------

  Final Cartesian lattice vectors (Angstroms) :

        4.225103    0.000000    0.000000
        0.000000    4.225103    0.000000
        0.000000    0.000000    8.450234


  Final cell parameters and derivatives :

--------------------------------------------------------------------------------
       a            4.225103 Angstrom     dE/a         0.000001 eV/Ang
       b            4.225103 Angstrom     dE/b         0.000001 eV/Ang
       c            8.450234 Angstrom     dE/c         0.000076 eV/Ang
       alpha       90.000000 Degrees      dE/alpha     0.000000 eV/Deg
       beta        90.000000 Degrees      dE/beta      0.000000 eV/Deg
       gamma       90.000000 Degrees      dE/gamma     0.000000 eV/Deg
--------------------------------------------------------------------------------

  Primitive cell volume =           150.849312 Angs**3

  Density of cell =      3.549895 g/cm**3

  Non-primitive cell volume =           150.849312 Angs**3


  Final internal derivatives :

--------------------------------------------------------------------------------
   No.  Atomic          a             b             c           Radius
        Label          (eV)          (eV)          (eV)        (eV/Angs)
--------------------------------------------------------------------------------
      1 Mg    c       0.000000      0.000000      0.000000      0.000000
      2 Mg    c       0.000000      0.000000     -0.000000      0.000000
      3 Mg    c       0.000000      0.000000      0.000000      0.000000
      4 Mg    c       0.000000     -0.000000      0.000000      0.000000
      5 Mg    c      -0.000000      0.000000      0.000000      0.000000
      6 Mg    c      -0.000000      0.000000     -0.000000      0.000000
      7 Mg    c      -0.000000     -0.000000     -0.000000      0.000000
      8 Mg    c      -0.000000      0.000000     -0.000000      0.000000
      9 O     c      -0.000000     -0.000000     -0.000000      0.000000
     10 O     c      -0.000000     -0.000000      0.000000      0.000000
     11 O     c      -0.000000      0.000000     -0.000000      0.000000
     12 O     c      -0.000000     -0.000000     -0.000000      0.000000
     13 O     c       0.000000     -0.000000     -0.000000      0.000000
     14 O     c       0.000000     -0.000000     -0.000000      0.000000
     15 O     c       0.000000     -0.000000     -0.000000      0.000000
     16 O     c       0.000000     -0.000000      0.000000      0.000000
--------------------------------------------------------------------------------
  Maximum abs         0.000000      0.000000      0.000000      0.000000
--------------------------------------------------------------------------------


  Born effective charge tensors : 

-------------------------------------------------------------------------------
  Atom             x           y             z
-------------------------------------------------------------------------------
    1 Mg    x       2.0000      0.0000      0.0000
            y       0.0000      2.0000      0.0000
            z       0.0000      0.0000      2.0000
-------------------------------------------------------------------------------
    2 Mg    x       2.0000      0.0000      0.0000
            y       0.0000      2.0000      0.0000
            z       0.0000      0.0000      2.0000
-------------------------------------------------------------------------------
    3 Mg    x       2.0000      0.0000      0.0000
            y       0.0000      2.0000      0.0000
            z       0.0000      0.0000      2.0000
-------------------------------------------------------------------------------
    4 Mg    x       2.0000      0.0000      0.0000
            y       0.0000      2.0000      0.0000
            z       0.0000      0.0000      2.0000
-------------------------------------------------------------------------------
    5 Mg    x       2.0000      0.0000      0.0000
            y       0.0000      2.0000      0.0000
            z       0.0000      0.0000      2.0000
-------------------------------------------------------------------------------
    6 Mg    x       2.0000      0.0000      0.0000
            y       0.0000      2.0000      0.0000
            z       0.0000      0.0000      2.0000
-------------------------------------------------------------------------------
    7 Mg    x       2.0000      0.0000      0.0000
            y       0.0000      2.0000      0.0000
            z       0.0000      0.0000      2.0000
-------------------------------------------------------------------------------
    8 Mg    x       2.0000      0.0000      0.0000
            y       0.0000      2.0000      0.0000
            z       0.0000      0.0000      2.0000
-------------------------------------------------------------------------------
    9 O     x      -2.0000      0.0000      0.0000
            y       0.0000     -2.0000      0.0000
            z       0.0000      0.0000     -2.0000
-------------------------------------------------------------------------------
   10 O     x      -2.0000      0.0000      0.0000
            y       0.0000     -2.0000      0.0000
            z       0.0000      0.0000     -2.0000
-------------------------------------------------------------------------------
   11 O     x      -2.0000      0.0000      0.0000
            y       0.0000     -2.0000      0.0000
            z       0.0000      0.0000     -2.0000
-------------------------------------------------------------------------------
   12 O     x      -2.0000      0.0000      0.0000
            y       0.0000     -2.0000      0.0000
            z       0.0000      0.0000     -2.0000
-------------------------------------------------------------------------------
   13 O     x      -2.0000      0.0000      0.0000
            y       0.0000     -2.0000      0.0000
            z       0.0000      0.0000     -2.0000
-------------------------------------------------------------------------------
   14 O     x      -2.0000      0.0000      0.0000
            y       0.0000     -2.0000      0.0000
            z       0.0000      0.0000     -2.0000
-------------------------------------------------------------------------------
   15 O     x      -2.0000      0.0000      0.0000
            y       0.0000     -2.0000      0.0000
            z       0.0000      0.0000     -2.0000
-------------------------------------------------------------------------------
   16 O     x      -2.0000      0.0000      0.0000
            y       0.0000     -2.0000      0.0000
            z       0.0000      0.0000     -2.0000
-------------------------------------------------------------------------------




  Elastic Constant Matrix: (Units=GPa)

-------------------------------------------------------------------------------
  Indices      1         2         3         4         5         6    
-------------------------------------------------------------------------------
       1    370.7364  163.0620  163.0602    0.0000    0.0000    0.0000
       2    163.0620  370.7364  163.0602   -0.0000   -0.0000    0.0000
       3    163.0602  163.0602  370.7269    0.0000   -0.0000   -0.0000
       4      0.0000   -0.0000    0.0000  163.0606   -0.0000   -0.0000
       5      0.0000   -0.0000   -0.0000   -0.0000  163.0606   -0.0000
       6      0.0000    0.0000   -0.0000   -0.0000   -0.0000  163.0620
-------------------------------------------------------------------------------


  Elastic Compliance Matrix: (Units=1/GPa)

-------------------------------------------------------------------------------
  Indices      1         2         3         4         5         6    
-------------------------------------------------------------------------------
       1    0.003688 -0.001127 -0.001127 -0.000000 -0.000000 -0.000000
       2   -0.001127  0.003688 -0.001127  0.000000  0.000000 -0.000000
       3   -0.001127 -0.001127  0.003689 -0.000000  0.000000  0.000000
       4   -0.000000  0.000000 -0.000000  0.006133  0.000000  0.000000
       5   -0.000000  0.000000  0.000000  0.000000  0.006133  0.000000
       6   -0.000000 -0.000000  0.000000  0.000000  0.000000  0.006133
-------------------------------------------------------------------------------

  Mechanical properties :

-------------------------------------------------------------------------------
  Convention :                    Reuss         Voigt         Hill
-------------------------------------------------------------------------------
  Bulk  Modulus (GPa)     =     232.28496     232.28496     232.28496
  Shear Modulus (GPa)     =     132.76997     139.37112     136.07054
-------------------------------------------------------------------------------
  Velocity S-wave (km/s)  =       6.11564       6.26583       6.19119
  Velocity P-wave (km/s)  =      10.73790      10.85273      10.79547
-------------------------------------------------------------------------------
  Compressibility (1/GPa) =    0.00430506
-------------------------------------------------------------------------------
  Stress axis :                     x             y             z
-------------------------------------------------------------------------------
  Youngs Moduli (GPa)     =     271.11363     271.11363     271.10639
-------------------------------------------------------------------------------
  Poissons Ratio (x)      =                     0.30547       0.30547
  Poissons Ratio (y)      =       0.30547                     0.30547
  Poissons Ratio (z)      =       0.30548       0.30548
-------------------------------------------------------------------------------


  Piezoelectric Strain Matrix: (Units=C/m**2)

-------------------------------------------------------------------------------
  Indices      1         2         3         4         5         6    
-------------------------------------------------------------------------------
       x     0.00000   0.00000  -0.00000   0.00000  -0.00000  -0.00000
       y     0.00000   0.00000  -0.00000  -0.00000   0.00000  -0.00000
       z     0.00000  -0.00000   0.00000   0.00000   0.00000   0.00000
-------------------------------------------------------------------------------


  Piezoelectric Stress Matrix: (Units=10**-11 C/N)

-------------------------------------------------------------------------------
  Indices      1         2         3         4         5         6    
-------------------------------------------------------------------------------
       x     0.00000   0.00000  -0.00000   0.00000  -0.00000  -0.00000
       y     0.00000   0.00000  -0.00000  -0.00000   0.00000  -0.00000
       z    -0.00000  -0.00000   0.00000   0.00000   0.00000   0.00000
-------------------------------------------------------------------------------


  Static dielectric constant tensor : 

-------------------------------------------------------------------------------
              x         y         z
-------------------------------------------------------------------------------
       x     7.78965   0.00000   0.00000
       y     0.00000   7.78965   0.00000
       z     0.00000   0.00000   7.79003
--------------------------------------------------------------------------------

  Static refractive indices : 

-------------------------------------------------------------------------------
    1 =    2.79099      2 =    2.79099      3 =    2.79106
-------------------------------------------------------------------------------


  Phonon Calculation : 

  Number of k points for this configuration =        1

--------------------------------------------------------------------------------
  K point      1 =   0.000000  0.000000  0.000000  Weight =    1.000
--------------------------------------------------------------------------------

  Frequencies (cm-1) [NB: Negative implies an imaginary mode]:

   -0.00   -0.00    0.00  243.50  243.50  243.50  243.50  344.62  344.62
  344.62  344.62  344.63  344.63  355.68  355.68  390.53  390.53  399.15
  399.16  399.16  426.15  426.15  426.15  426.15  453.36  453.36  453.36
  453.36  457.33  457.33  457.34  457.34  457.34  457.34  475.31  475.31
  488.92  488.92  488.92  609.76  609.76  609.76  609.76  798.99  798.99
  799.00  968.16  968.16


--------------------------------------------------------------------------------
  Phonon properties (per mole of unit cells): Temperature =      0.000 K
--------------------------------------------------------------------------------
  Zero point energy            =        1.313211 eV
--------------------------------------------------------------------------------

  Time to end of optimisation =       0.0269 seconds


################################################################################
#  Output for cell point     1                                                 #
################################################################################


  Components of energy : 

--------------------------------------------------------------------------------
  Interatomic potentials     =          53.24888884 eV    
  Monopole - monopole (real) =        -163.10237401 eV    
  Monopole - monopole (recip)=        -218.06654048 eV    
  Monopole - monopole (total)=        -381.16891449 eV    
--------------------------------------------------------------------------------
  Total lattice energy       =        -327.92002565 eV    
--------------------------------------------------------------------------------
  Total lattice energy       =          -31639.2698 kJ/(mole unit cells)
--------------------------------------------------------------------------------


  Number of variables =       48

  Maximum number of calculations  =          1000
  Maximum Hessian update interval =            10
  Maximum step size               =   1.000000000
  Maximum parameter tolerance     =   0.000010000
  Maximum function  tolerance     =   0.000010000
  Maximum gradient  tolerance     =   0.001000000
  Maximum gradient  component     =   0.010000000

  Symmetry not applied to optimisation

  Cell parameters to be optimised directly

  RFO method to be used

  DFP hessian update to be used

  Lower half triangular hessian to be used

  Start of bulk optimisation :

  Cycle:      0 Energy:      -327.920026  Gnorm:      0.000043  CPU:    0.030


  **** Optimisation achieved ****


  Final energy =    -327.92002565 eV
  Final Gnorm  =       0.00004259

  Components of energy : 

--------------------------------------------------------------------------------
  Interatomic potentials     =          53.24888884 eV    
  Monopole - monopole (real) =        -163.10237401 eV    
  Monopole - monopole (recip)=        -218.06654048 eV    
  Monopole - monopole (total)=        -381.16891449 eV    
--------------------------------------------------------------------------------
  Total lattice energy       =        -327.92002565 eV    
--------------------------------------------------------------------------------
  Total lattice energy       =          -31639.2698 kJ/(mole unit cells)
--------------------------------------------------------------------------------

  Final fractional coordinates of atoms :

--------------------------------------------------------------------------------
   No.  Atomic        x           y          z          Radius
        Label       (Frac)      (Frac)     (Frac)       (Angs) 
--------------------------------------------------------------------------------
     1  Mg    c     0.000000    0.000000    0.000000    0.000000
     2  Mg    c    -0.000000   -0.000000    0.500000    0.000000
     3  Mg    c    -0.000000    0.500000    0.250000    0.000000
     4  Mg    c    -0.000000    0.500000    0.750000    0.000000
     5  Mg    c     0.500000   -0.000000    0.250000    0.000000
     6  Mg    c     0.500000   -0.000000    0.750000    0.000000
     7  Mg    c     0.500000    0.500000   -0.000000    0.000000
     8  Mg    c     0.500000    0.500000    0.500000    0.000000
     9  O     c     0.500000    0.500000    0.250000    0.000000
    10  O     c     0.500000    0.500000    0.750000    0.000000
    11  O     c     0.500000   -0.000000   -0.000000    0.000000
    12  O     c     0.500000   -0.000000    0.500000    0.000000
    13  O     c    -0.000000    0.500000   -0.000000    0.000000
    14  O     c    -0.000000    0.500000    0.500000    0.000000
    15  O     c    -0.000000   -0.000000    0.250000    0.000000
    16  O     c    -0.000000   -0.000000    0.750000    0.000000
--------------------------------------------------------------------------------

  Final Cartesian lattice vectors (Angstroms) :

        4.225103    0.000000    0.000000
        0.000000    4.225103    0.000000
       -0.073741   -0.073741    8.449590


  Final cell parameters and derivatives :

--------------------------------------------------------------------------------
       a            4.225103 Angstrom     dE/a         0.000284 eV/Ang
       b            4.225103 Angstrom     dE/b         0.000284 eV/Ang
       c            8.450234 Angstrom     dE/c        -0.002004 eV/Ang
       alpha       90.500000 Degrees      dE/alpha     0.000000 eV/Deg
       beta        90.500000 Degrees      dE/beta      0.000000 eV/Deg
       gamma       90.000000 Degrees      dE/gamma     0.000000 eV/Deg
--------------------------------------------------------------------------------

  Primitive cell volume =           150.837824 Angs**3

  Density of cell =      3.550165 g/cm**3

  Non-primitive cell volume =           150.837824 Angs**3


  Final internal derivatives :

--------------------------------------------------------------------------------
   No.  Atomic          a             b             c           Radius
        Label          (eV)          (eV)          (eV)        (eV/Angs)
--------------------------------------------------------------------------------
      1 Mg    c       0.000000      0.000000      0.000000      0.000000
      2 Mg    c      -0.000000     -0.000000     -0.000000      0.000000
      3 Mg    c      -0.000000      0.000000      0.000000      0.000000
      4 Mg    c      -0.000000      0.000000      0.000000      0.000000
      5 Mg    c       0.000000     -0.000000      0.000000      0.000000
      6 Mg    c       0.000000     -0.000000      0.000000      0.000000
      7 Mg    c       0.000000      0.000000     -0.000000      0.000000
      8 Mg    c       0.000000      0.000000     -0.000000      0.000000
      9 O     c       0.000000      0.000000     -0.000000      0.000000
     10 O     c       0.000000      0.000000      0.000000      0.000000
     11 O     c      -0.000000      0.000000      0.000000      0.000000
     12 O     c       0.000000     -0.000000      0.000000      0.000000
     13 O     c       0.000000     -0.000000     -0.000000      0.000000
     14 O     c      -0.000000     -0.000000      0.000000      0.000000
     15 O     c      -0.000000      0.000000     -0.000000      0.000000
     16 O     c      -0.000000     -0.000000      0.000000      0.000000
--------------------------------------------------------------------------------
  Maximum abs         0.000000      0.000000      0.000000      0.000000
--------------------------------------------------------------------------------


  Born effective charge tensors : 

-------------------------------------------------------------------------------
  Atom             x           y             z
-------------------------------------------------------------------------------
    1 Mg    x       2.0000      0.0000      0.0000
            y       0.0000      2.0000      0.0000
            z       0.0000      0.0000      2.0000
-------------------------------------------------------------------------------
    2 Mg    x       2.0000      0.0000      0.0000
            y       0.0000      2.0000      0.0000
            z       0.0000      0.0000      2.0000
-------------------------------------------------------------------------------
    3 Mg    x       2.0000      0.0000      0.0000
            y       0.0000      2.0000      0.0000
            z       0.0000      0.0000      2.0000
-------------------------------------------------------------------------------
    4 Mg    x       2.0000      0.0000      0.0000
            y       0.0000      2.0000      0.0000
            z       0.0000      0.0000      2.0000
-------------------------------------------------------------------------------
    5 Mg    x       2.0000      0.0000      0.0000
            y       0.0000      2.0000      0.0000
            z       0.0000      0.0000      2.0000
-------------------------------------------------------------------------------
    6 Mg    x       2.0000      0.0000      0.0000
            y       0.0000      2.0000      0.0000
            z       0.0000      0.0000      2.0000
-------------------------------------------------------------------------------
    7 Mg    x       2.0000      0.0000      0.0000
            y       0.0000      2.0000      0.0000
            z       0.0000      0.0000      2.0000
-------------------------------------------------------------------------------
    8 Mg    x       2.0000      0.0000      0.0000
            y       0.0000      2.0000      0.0000
            z       0.0000      0.0000      2.0000
-------------------------------------------------------------------------------
    9 O     x      -2.0000      0.0000      0.0000
            y       0.0000     -2.0000      0.0000
            z       0.0000      0.0000     -2.0000
-------------------------------------------------------------------------------
   10 O     x      -2.0000      0.0000      0.0000
            y       0.0000     -2.0000      0.0000
            z       0.0000      0.0000     -2.0000
-------------------------------------------------------------------------------
   11 O     x      -2.0000      0.0000      0.0000
            y       0.0000     -2.0000      0.0000
            z       0.0000      0.0000     -2.0000
-------------------------------------------------------------------------------
   12 O     x      -2.0000      0.0000      0.0000
            y       0.0000     -2.0000      0.0000
            z       0.0000      0.0000     -2.0000
-------------------------------------------------------------------------------
   13 O     x      -2.0000      0.0000      0.0000
            y       0.0000     -2.0000      0.0000
            z       0.0000      0.0000     -2.0000
-------------------------------------------------------------------------------
   14 O     x      -2.0000      0.0000      0.0000
            y       0.0000     -2.0000      0.0000
            z       0.0000      0.0000     -2.0000
-------------------------------------------------------------------------------
   15 O     x      -2.0000      0.0000      0.0000
            y       0.0000     -2.0000      0.0000
            z       0.0000      0.0000     -2.0000
-------------------------------------------------------------------------------
   16 O     x      -2.0000      0.0000      0.0000
            y       0.0000     -2.0000      0.0000
            z       0.0000      0.0000     -2.0000
-------------------------------------------------------------------------------




  Elastic Constant Matrix: (Units=GPa)

-------------------------------------------------------------------------------
  Indices      1         2         3         4         5         6    
-------------------------------------------------------------------------------
       1    370.7527  163.1425  163.0691   -3.8527   -0.7067    0.0619
       2    163.1425  370.7527  163.0691   -0.7067   -3.8527    0.0619
       3    163.0691  163.0691  370.7171    0.3271    0.3271   -0.1003
       4     -3.8527   -0.7067    0.3271  163.0546   -0.0773   -4.5640
       5     -0.7067   -3.8527    0.3271   -0.0773  163.0546   -4.5640
       6      0.0619    0.0619   -0.1003   -4.5640   -4.5640  163.1562
-------------------------------------------------------------------------------


  Elastic Compliance Matrix: (Units=1/GPa)

-------------------------------------------------------------------------------
  Indices      1         2         3         4         5         6    
-------------------------------------------------------------------------------
       1    0.003690 -0.001128 -0.001127  0.000085 -0.000008  0.000000
       2   -0.001128  0.003690 -0.001127 -0.000008  0.000085  0.000000
       3   -0.001127 -0.001127  0.003689 -0.000039 -0.000039  0.000001
       4    0.000085 -0.000008 -0.000039  0.006140  0.000008  0.000172
       5   -0.000008  0.000085 -0.000039  0.000008  0.006140  0.000172
       6    0.000000  0.000000  0.000001  0.000172  0.000172  0.006139
-------------------------------------------------------------------------------

  Mechanical properties :

-------------------------------------------------------------------------------
  Convention :                    Reuss         Voigt         Hill
-------------------------------------------------------------------------------
  Bulk  Modulus (GPa)     =     232.28486     232.30932     232.29709
  Shear Modulus (GPa)     =     132.67140     139.38250     136.02695
-------------------------------------------------------------------------------
  Velocity S-wave (km/s)  =       6.11314       6.26585       6.18997
  Velocity P-wave (km/s)  =      10.73576      10.85283      10.79446
-------------------------------------------------------------------------------
  Compressibility (1/GPa) =    0.00430506
-------------------------------------------------------------------------------
  Stress axis :                     x             y             z
-------------------------------------------------------------------------------
  Youngs Moduli (GPa)     =     270.99100     270.99100     271.06740
-------------------------------------------------------------------------------
  Poissons Ratio (x)      =                     0.30567       0.30552
  Poissons Ratio (y)      =       0.30567                     0.30552
  Poissons Ratio (z)      =       0.30544       0.30544
-------------------------------------------------------------------------------


  Piezoelectric Strain Matrix: (Units=C/m**2)

-------------------------------------------------------------------------------
  Indices      1         2         3         4         5         6    
-------------------------------------------------------------------------------
       x    -0.00000  -0.00000  -0.00000  -0.00000  -0.00000   0.00000
       y     0.00000  -0.00000   0.00000  -0.00000  -0.00000   0.00000
       z    -0.00000  -0.00000   0.00000   0.00000   0.00000  -0.00000
-------------------------------------------------------------------------------


  Piezoelectric Stress Matrix: (Units=10**-11 C/N)

-------------------------------------------------------------------------------
  Indices      1         2         3         4         5         6    
-------------------------------------------------------------------------------
       x    -0.00000  -0.00000   0.00000  -0.00000  -0.00000   0.00000
       y     0.00000  -0.00000   0.00000  -0.00000  -0.00000   0.00000
       z    -0.00000  -0.00000   0.00000   0.00000   0.00000  -0.00000
-------------------------------------------------------------------------------


  Static dielectric constant tensor : 

-------------------------------------------------------------------------------
              x         y         z
-------------------------------------------------------------------------------
       x     7.79105   0.00118   0.03667
       y     0.00118   7.79105   0.03667
       z     0.03667   0.03667   7.79228
--------------------------------------------------------------------------------

  Static refractive indices : 

-------------------------------------------------------------------------------
    1 =    2.78216      2 =    2.79103      3 =    2.80073
-------------------------------------------------------------------------------


  Phonon Calculation : 

  Number of k points for this configuration =        1

--------------------------------------------------------------------------------
  K point      1 =   0.000000  0.000000  0.000000  Weight =    1.000
--------------------------------------------------------------------------------

  Frequencies (cm-1) [NB: Negative implies an imaginary mode]:

   -0.00   -0.00    0.00  243.36  243.36  243.56  243.56  340.76  340.76
  344.36  344.71  348.35  348.35  355.75  355.75  390.54  390.54  397.58
  399.17  400.63  426.06  426.06  426.19  426.19  453.33  453.33  453.33
  453.33  455.28  455.28  457.15  457.41  459.34  459.34  475.37  475.37
  488.99  488.99  489.08  609.72  609.72  609.78  609.78  799.02  799.02
  799.04  968.19  968.19


--------------------------------------------------------------------------------
  Phonon properties (per mole of unit cells): Temperature =      0.000 K
--------------------------------------------------------------------------------
  Zero point energy            =        1.313186 eV
--------------------------------------------------------------------------------

  Time to end of optimisation =       0.0384 seconds


################################################################################
#  Output for cell point     2                                                 #
################################################################################


  Components of energy : 

--------------------------------------------------------------------------------
  Interatomic potentials     =          53.24930931 eV    
  Monopole - monopole (real) =        -163.05167806 eV    
  Monopole - monopole (recip)=        -218.08257982 eV    
  Monopole - monopole (total)=        -381.13425789 eV    
--------------------------------------------------------------------------------
  Total lattice energy       =        -327.88494858 eV    
--------------------------------------------------------------------------------
  Total lattice energy       =          -31635.8854 kJ/(mole unit cells)
--------------------------------------------------------------------------------


  Number of variables =       48

  Maximum number of calculations  =          1000
  Maximum Hessian update interval =            10
  Maximum step size               =   1.000000000
  Maximum parameter tolerance     =   0.000010000
  Maximum function  tolerance     =   0.000010000
  Maximum gradient  tolerance     =   0.001000000
  Maximum gradient  component     =   0.010000000

  Symmetry not applied to optimisation

  Cell parameters to be optimised directly

  RFO method to be used

  DFP hessian update to be used

  Lower half triangular hessian to be used

  Start of bulk optimisation :

  Cycle:      0 Energy:      -327.884949  Gnorm:      0.000175  CPU:    0.042


  **** Optimisation achieved ****


  Final energy =    -327.88494858 eV
  Final Gnorm  =       0.00017512

  Components of energy : 

--------------------------------------------------------------------------------
  Interatomic potentials     =          53.24930931 eV    
  Monopole - monopole (real) =        -163.05167806 eV    
  Monopole - monopole (recip)=        -218.08257982 eV    
  Monopole - monopole (total)=        -381.13425789 eV    
--------------------------------------------------------------------------------
  Total lattice energy       =        -327.88494858 eV    
--------------------------------------------------------------------------------
  Total lattice energy       =          -31635.8854 kJ/(mole unit cells)
--------------------------------------------------------------------------------

  Final fractional coordinates of atoms :

--------------------------------------------------------------------------------
   No.  Atomic        x           y          z          Radius
        Label       (Frac)      (Frac)     (Frac)       (Angs) 
--------------------------------------------------------------------------------
     1  Mg    c     0.000000    0.000000    0.000000    0.000000
     2  Mg    c    -0.000000   -0.000000    0.500000    0.000000
     3  Mg    c    -0.000000    0.500000    0.250000    0.000000
     4  Mg    c    -0.000000    0.500000    0.750000    0.000000
     5  Mg    c     0.500000   -0.000000    0.250000    0.000000
     6  Mg    c     0.500000   -0.000000    0.750000    0.000000
     7  Mg    c     0.500000    0.500000   -0.000000    0.000000
     8  Mg    c     0.500000    0.500000    0.500000    0.000000
     9  O     c     0.500000    0.500000    0.250000    0.000000
    10  O     c     0.500000    0.500000    0.750000    0.000000
    11  O     c     0.500000   -0.000000   -0.000000    0.000000
    12  O     c     0.500000   -0.000000    0.500000    0.000000
    13  O     c    -0.000000    0.500000   -0.000000    0.000000
    14  O     c    -0.000000    0.500000    0.500000    0.000000
    15  O     c    -0.000000   -0.000000    0.250000    0.000000
    16  O     c    -0.000000   -0.000000    0.750000    0.000000
--------------------------------------------------------------------------------

  Final Cartesian lattice vectors (Angstroms) :

        4.225103    0.000000    0.000000
        0.000000    4.225103    0.000000
       -0.147477   -0.147477    8.447659


  Final cell parameters and derivatives :

--------------------------------------------------------------------------------
       a            4.225103 Angstrom     dE/a         0.001134 eV/Ang
       b            4.225103 Angstrom     dE/b         0.001134 eV/Ang
       c            8.450234 Angstrom     dE/c        -0.008251 eV/Ang
       alpha       91.000000 Degrees      dE/alpha     0.000000 eV/Deg
       beta        91.000000 Degrees      dE/beta      0.000000 eV/Deg
       gamma       90.000000 Degrees      dE/gamma     0.000000 eV/Deg
--------------------------------------------------------------------------------

  Primitive cell volume =           150.803358 Angs**3

  Density of cell =      3.550976 g/cm**3

  Non-primitive cell volume =           150.803358 Angs**3


  Final internal derivatives :

--------------------------------------------------------------------------------
   No.  Atomic          a             b             c           Radius
        Label          (eV)          (eV)          (eV)        (eV/Angs)
--------------------------------------------------------------------------------
      1 Mg    c       0.000000      0.000000      0.000000      0.000000
      2 Mg    c       0.000000      0.000000     -0.000000      0.000000
      3 Mg    c       0.000000     -0.000000      0.000000      0.000000
      4 Mg    c       0.000000     -0.000000      0.000000      0.000000
      5 Mg    c      -0.000000     -0.000000      0.000000      0.000000
      6 Mg    c      -0.000000     -0.000000      0.000000      0.000000
      7 Mg    c       0.000000      0.000000     -0.000000      0.000000
      8 Mg    c      -0.000000     -0.000000     -0.000000      0.000000
      9 O     c       0.000000      0.000000     -0.000000      0.000000
     10 O     c      -0.000000     -0.000000      0.000000      0.000000
     11 O     c      -0.000000      0.000000     -0.000000      0.000000
     12 O     c      -0.000000      0.000000      0.000000      0.000000
     13 O     c       0.000000     -0.000000     -0.000000      0.000000
     14 O     c       0.000000      0.000000      0.000000      0.000000
     15 O     c      -0.000000      0.000000     -0.000000      0.000000
     16 O     c      -0.000000     -0.000000      0.000000      0.000000
--------------------------------------------------------------------------------
  Maximum abs         0.000000      0.000000      0.000000      0.000000
--------------------------------------------------------------------------------


  Born effective charge tensors : 

-------------------------------------------------------------------------------
  Atom             x           y             z
-------------------------------------------------------------------------------
    1 Mg    x       2.0000      0.0000      0.0000
            y       0.0000      2.0000      0.0000
            z       0.0000      0.0000      2.0000
-------------------------------------------------------------------------------
    2 Mg    x       2.0000      0.0000      0.0000
            y       0.0000      2.0000      0.0000
            z       0.0000      0.0000      2.0000
-------------------------------------------------------------------------------
    3 Mg    x       2.0000      0.0000      0.0000
            y       0.0000      2.0000      0.0000
            z       0.0000      0.0000      2.0000
-------------------------------------------------------------------------------
    4 Mg    x       2.0000      0.0000      0.0000
            y       0.0000      2.0000      0.0000
            z       0.0000      0.0000      2.0000
-------------------------------------------------------------------------------
    5 Mg    x       2.0000      0.0000      0.0000
            y       0.0000      2.0000      0.0000
            z       0.0000      0.0000      2.0000
-------------------------------------------------------------------------------
    6 Mg    x       2.0000      0.0000      0.0000
            y       0.0000      2.0000      0.0000
            z       0.0000      0.0000      2.0000
-------------------------------------------------------------------------------
    7 Mg    x       2.0000      0.0000      0.0000
            y       0.0000      2.0000      0.0000
            z       0.0000      0.0000      2.0000
-------------------------------------------------------------------------------
    8 Mg    x       2.0000      0.0000      0.0000
            y       0.0000      2.0000      0.0000
            z       0.0000      0.0000      2.0000
-------------------------------------------------------------------------------
    9 O     x      -2.0000      0.0000      0.0000
            y       0.0000     -2.0000      0.0000
            z       0.0000      0.0000     -2.0000
-------------------------------------------------------------------------------
   10 O     x      -2.0000      0.0000      0.0000
            y       0.0000     -2.0000      0.0000
            z       0.0000      0.0000     -2.0000
-------------------------------------------------------------------------------
   11 O     x      -2.0000      0.0000      0.0000
            y       0.0000     -2.0000      0.0000
            z       0.0000      0.0000     -2.0000
-------------------------------------------------------------------------------
   12 O     x      -2.0000      0.0000      0.0000
            y       0.0000     -2.0000      0.0000
            z       0.0000      0.0000     -2.0000
-------------------------------------------------------------------------------
   13 O     x      -2.0000      0.0000      0.0000
            y       0.0000     -2.0000      0.0000
            z       0.0000      0.0000     -2.0000
-------------------------------------------------------------------------------
   14 O     x      -2.0000      0.0000      0.0000
            y       0.0000     -2.0000      0.0000
            z       0.0000      0.0000     -2.0000
-------------------------------------------------------------------------------
   15 O     x      -2.0000      0.0000      0.0000
            y       0.0000     -2.0000      0.0000
            z       0.0000      0.0000     -2.0000
-------------------------------------------------------------------------------
   16 O     x      -2.0000      0.0000      0.0000
            y       0.0000     -2.0000      0.0000
            z       0.0000      0.0000     -2.0000
-------------------------------------------------------------------------------




  Elastic Constant Matrix: (Units=GPa)

-------------------------------------------------------------------------------
  Indices      1         2         3         4         5         6    
-------------------------------------------------------------------------------
       1    370.8014  163.3842  163.0958   -7.7041   -1.4136    0.2475
       2    163.3842  370.8014  163.0958   -1.4136   -7.7041    0.2475
       3    163.0958  163.0958  370.6876    0.6546    0.6546   -0.4015
       4     -7.7041   -1.4136    0.6546  163.0365   -0.3094   -9.1260
       5     -1.4136   -7.7041    0.6546   -0.3094  163.0365   -9.1260
       6      0.2475    0.2475   -0.4015   -9.1260   -9.1260  163.4389
-------------------------------------------------------------------------------


  Elastic Compliance Matrix: (Units=1/GPa)

-------------------------------------------------------------------------------
  Indices      1         2         3         4         5         6    
-------------------------------------------------------------------------------
       1    0.003695 -0.001132 -0.001128  0.000169 -0.000016  0.000002
       2   -0.001132  0.003695 -0.001128 -0.000016  0.000169  0.000002
       3   -0.001128 -0.001128  0.003691 -0.000078 -0.000078  0.000004
       4    0.000169 -0.000016 -0.000078  0.006161  0.000032  0.000345
       5   -0.000016  0.000169 -0.000078  0.000032  0.006161  0.000345
       6    0.000002  0.000002  0.000004  0.000345  0.000345  0.006157
-------------------------------------------------------------------------------

  Mechanical properties :

-------------------------------------------------------------------------------
  Convention :                    Reuss         Voigt         Hill
-------------------------------------------------------------------------------
  Bulk  Modulus (GPa)     =     232.28412     232.38244     232.33328
  Shear Modulus (GPa)     =     132.37500     139.41669     135.89584
-------------------------------------------------------------------------------
  Velocity S-wave (km/s)  =       6.10561       6.26590       6.18627
  Velocity P-wave (km/s)  =      10.72934      10.85313      10.79142
-------------------------------------------------------------------------------
  Compressibility (1/GPa) =    0.00430507
-------------------------------------------------------------------------------
  Stress axis :                     x             y             z
-------------------------------------------------------------------------------
  Youngs Moduli (GPa)     =     270.62309     270.62309     270.95026
-------------------------------------------------------------------------------
  Poissons Ratio (x)      =                     0.30625       0.30568
  Poissons Ratio (y)      =       0.30625                     0.30568
  Poissons Ratio (z)      =       0.30531       0.30531
-------------------------------------------------------------------------------


  Piezoelectric Strain Matrix: (Units=C/m**2)

-------------------------------------------------------------------------------
  Indices      1         2         3         4         5         6    
-------------------------------------------------------------------------------
       x     0.00000  -0.00000  -0.00000   0.00000  -0.00000   0.00000
       y    -0.00000  -0.00000  -0.00000  -0.00000   0.00000  -0.00000
       z     0.00000   0.00000   0.00000   0.00000  -0.00000   0.00000
-------------------------------------------------------------------------------


  Piezoelectric Stress Matrix: (Units=10**-11 C/N)

-------------------------------------------------------------------------------
  Indices      1         2         3         4         5         6    
-------------------------------------------------------------------------------
       x     0.00000  -0.00000  -0.00000   0.00000  -0.00000  -0.00000
       y     0.00000  -0.00000   0.00000  -0.00000  -0.00000  -0.00000
       z    -0.00000  -0.00000   0.00000  -0.00000  -0.00000  -0.00000
-------------------------------------------------------------------------------


  Static dielectric constant tensor : 

-------------------------------------------------------------------------------
              x         y         z
-------------------------------------------------------------------------------
       x     7.79524   0.00474   0.07355
       y     0.00474   7.79524   0.07355
       z     0.07355   0.07355   7.79903
--------------------------------------------------------------------------------

  Static refractive indices : 

-------------------------------------------------------------------------------
    1 =    2.77407      2 =    2.79115      3 =    2.81132
-------------------------------------------------------------------------------


  Phonon Calculation : 

  Number of k points for this configuration =        1

--------------------------------------------------------------------------------
  K point      1 =   0.000000  0.000000  0.000000  Weight =    1.000
--------------------------------------------------------------------------------

  Frequencies (cm-1) [NB: Negative implies an imaginary mode]:

   -0.00    0.00    0.00  242.91  242.91  243.74  243.74  336.77  336.77
  343.59  344.95  351.94  351.94  355.95  355.95  390.58  390.58  395.91
  399.19  402.02  425.82  425.82  426.30  426.30  453.18  453.18  453.25
  453.25  453.26  453.26  456.59  457.61  461.29  461.29  475.55  475.55
  489.20  489.20  489.57  609.61  609.61  609.87  609.87  799.10  799.10
  799.18  968.25  968.25


--------------------------------------------------------------------------------
  Phonon properties (per mole of unit cells): Temperature =      0.000 K
--------------------------------------------------------------------------------
  Zero point energy            =        1.313110 eV
--------------------------------------------------------------------------------

  Time to end of optimisation =       0.0505 seconds


################################################################################
#  Output for cell point     3                                                 #
################################################################################


  Components of energy : 

--------------------------------------------------------------------------------
  Interatomic potentials     =          53.25245420 eV    
  Monopole - monopole (real) =        -162.96717943 eV    
  Monopole - monopole (recip)=        -218.10932197 eV    
  Monopole - monopole (total)=        -381.07650139 eV    
--------------------------------------------------------------------------------
  Total lattice energy       =        -327.82404720 eV    
--------------------------------------------------------------------------------
  Total lattice energy       =          -31630.0093 kJ/(mole unit cells)
--------------------------------------------------------------------------------


  Number of variables =       48

  Maximum number of calculations  =          1000
  Maximum Hessian update interval =            10
  Maximum step size               =   1.000000000
  Maximum parameter tolerance     =   0.000010000
  Maximum function  tolerance     =   0.000010000
  Maximum gradient  tolerance     =   0.001000000
  Maximum gradient  component     =   0.010000000

  Symmetry not applied to optimisation

  Cell parameters to be optimised directly

  RFO method to be used

  DFP hessian update to be used

  Lower half triangular hessian to be used

  Start of bulk optimisation :

  Cycle:      0 Energy:      -327.824047  Gnorm:      0.000409  CPU:    0.054
  ** Hessian has required structure
  Cycle:      1 Energy:      -327.824103  Gnorm:      0.000001  CPU:    0.058
  ** Hessian has required structure


  **** Optimisation achieved ****


  Final energy =    -327.82410344 eV
  Final Gnorm  =       0.00000000

  Components of energy : 

--------------------------------------------------------------------------------
  Interatomic potentials     =          53.22330454 eV    
  Monopole - monopole (real) =        -162.95488394 eV    
  Monopole - monopole (recip)=        -218.09252405 eV    
  Monopole - monopole (total)=        -381.04740798 eV    
--------------------------------------------------------------------------------
  Total lattice energy       =        -327.82410344 eV    
--------------------------------------------------------------------------------
  Total lattice energy       =          -31630.0147 kJ/(mole unit cells)
--------------------------------------------------------------------------------

  Final fractional coordinates of atoms :

--------------------------------------------------------------------------------
   No.  Atomic        x           y          z          Radius
        Label       (Frac)      (Frac)     (Frac)       (Angs) 
--------------------------------------------------------------------------------
     1  Mg    c     0.000000    0.000000    0.000000    0.000000
     2  Mg    c    -0.000000   -0.000000    0.500000    0.000000
     3  Mg    c    -0.000000    0.500000    0.250000    0.000000
     4  Mg    c    -0.000000    0.500000    0.750000    0.000000
     5  Mg    c     0.500000   -0.000000    0.250000    0.000000
     6  Mg    c     0.500000   -0.000000    0.750000    0.000000
     7  Mg    c     0.500000    0.500000   -0.000000    0.000000
     8  Mg    c     0.500000    0.500000    0.500000    0.000000
     9  O     c     0.500000    0.500000    0.250000    0.000000
    10  O     c     0.500000    0.500000    0.750000    0.000000
    11  O     c     0.500000   -0.000000   -0.000000    0.000000
    12  O     c     0.500000   -0.000000    0.500000    0.000000
    13  O     c    -0.000000    0.500000   -0.000000    0.000000
    14  O     c    -0.000000    0.500000    0.500000    0.000000
    15  O     c    -0.000000   -0.000000    0.250000    0.000000
    16  O     c    -0.000000   -0.000000    0.750000    0.000000
--------------------------------------------------------------------------------

  Final Cartesian lattice vectors (Angstroms) :

        4.224185    0.000000    0.000000
        0.000000    4.224185    0.000000
       -0.221349   -0.221349    8.450065


  Final cell parameters and derivatives :

--------------------------------------------------------------------------------
       a            4.224185 Angstrom     dE/a         0.000000 eV/Ang
       b            4.224185 Angstrom     dE/b         0.000000 eV/Ang
       c            8.455861 Angstrom     dE/c        -0.000000 eV/Ang
       alpha       91.500000 Degrees      dE/alpha     0.000000 eV/Deg
       beta        91.500000 Degrees      dE/beta      0.000000 eV/Deg
       gamma       90.000000 Degrees      dE/gamma     0.000000 eV/Deg
--------------------------------------------------------------------------------

  Primitive cell volume =           150.780747 Angs**3

  Density of cell =      3.551509 g/cm**3

  Non-primitive cell volume =           150.780747 Angs**3


  Final internal derivatives :

--------------------------------------------------------------------------------
   No.  Atomic          a             b             c           Radius
        Label          (eV)          (eV)          (eV)        (eV/Angs)
--------------------------------------------------------------------------------
      1 Mg    c       0.000000      0.000000      0.000000      0.000000
      2 Mg    c       0.000000      0.000000     -0.000000      0.000000
      3 Mg    c       0.000000      0.000000      0.000000      0.000000
      4 Mg    c       0.000000     -0.000000      0.000000      0.000000
      5 Mg    c       0.000000     -0.000000      0.000000      0.000000
      6 Mg    c      -0.000000      0.000000      0.000000      0.000000
      7 Mg    c       0.000000      0.000000     -0.000000      0.000000
      8 Mg    c      -0.000000     -0.000000     -0.000000      0.000000
      9 O     c       0.000000      0.000000     -0.000000      0.000000
     10 O     c      -0.000000     -0.000000      0.000000      0.000000
     11 O     c      -0.000000     -0.000000     -0.000000      0.000000
     12 O     c      -0.000000      0.000000     -0.000000      0.000000
     13 O     c      -0.000000     -0.000000     -0.000000      0.000000
     14 O     c      -0.000000     -0.000000     -0.000000      0.000000
     15 O     c      -0.000000      0.000000     -0.000000      0.000000
     16 O     c       0.000000      0.000000      0.000000      0.000000
--------------------------------------------------------------------------------
  Maximum abs         0.000000      0.000000      0.000000      0.000000
--------------------------------------------------------------------------------


  Born effective charge tensors : 

-------------------------------------------------------------------------------
  Atom             x           y             z
-------------------------------------------------------------------------------
    1 Mg    x       2.0000      0.0000      0.0000
            y       0.0000      2.0000      0.0000
            z       0.0000      0.0000      2.0000
-------------------------------------------------------------------------------
    2 Mg    x       2.0000      0.0000      0.0000
            y       0.0000      2.0000      0.0000
            z       0.0000      0.0000      2.0000
-------------------------------------------------------------------------------
    3 Mg    x       2.0000      0.0000      0.0000
            y       0.0000      2.0000      0.0000
            z       0.0000      0.0000      2.0000
-------------------------------------------------------------------------------
    4 Mg    x       2.0000      0.0000      0.0000
            y       0.0000      2.0000      0.0000
            z       0.0000      0.0000      2.0000
-------------------------------------------------------------------------------
    5 Mg    x       2.0000      0.0000      0.0000
            y       0.0000      2.0000      0.0000
            z       0.0000      0.0000      2.0000
-------------------------------------------------------------------------------
    6 Mg    x       2.0000      0.0000      0.0000
            y       0.0000      2.0000      0.0000
            z       0.0000      0.0000      2.0000
-------------------------------------------------------------------------------
    7 Mg    x       2.0000      0.0000      0.0000
            y       0.0000      2.0000      0.0000
            z       0.0000      0.0000      2.0000
-------------------------------------------------------------------------------
    8 Mg    x       2.0000      0.0000      0.0000
            y       0.0000      2.0000      0.0000
            z       0.0000      0.0000      2.0000
-------------------------------------------------------------------------------
    9 O     x      -2.0000      0.0000      0.0000
            y       0.0000     -2.0000      0.0000
            z       0.0000      0.0000     -2.0000
-------------------------------------------------------------------------------
   10 O     x      -2.0000      0.0000      0.0000
            y       0.0000     -2.0000      0.0000
            z       0.0000      0.0000     -2.0000
-------------------------------------------------------------------------------
   11 O     x      -2.0000      0.0000      0.0000
            y       0.0000     -2.0000      0.0000
            z       0.0000      0.0000     -2.0000
-------------------------------------------------------------------------------
   12 O     x      -2.0000      0.0000      0.0000
            y       0.0000     -2.0000      0.0000
            z       0.0000      0.0000     -2.0000
-------------------------------------------------------------------------------
   13 O     x      -2.0000      0.0000      0.0000
            y       0.0000     -2.0000      0.0000
            z       0.0000      0.0000     -2.0000
-------------------------------------------------------------------------------
   14 O     x      -2.0000      0.0000      0.0000
            y       0.0000     -2.0000      0.0000
            z       0.0000      0.0000     -2.0000
-------------------------------------------------------------------------------
   15 O     x      -2.0000      0.0000      0.0000
            y       0.0000     -2.0000      0.0000
            z       0.0000      0.0000     -2.0000
-------------------------------------------------------------------------------
   16 O     x      -2.0000      0.0000      0.0000
            y       0.0000     -2.0000      0.0000
            z       0.0000      0.0000     -2.0000
-------------------------------------------------------------------------------




  Elastic Constant Matrix: (Units=GPa)

-------------------------------------------------------------------------------
  Indices      1         2         3         4         5         6    
-------------------------------------------------------------------------------
       1    371.3813  164.0466  162.9422  -11.5530   -2.1459    0.5618
       2    164.0466  371.3813  162.9422   -2.1459  -11.5530    0.5618
       3    162.9422  162.9422  368.5888    1.0390    1.0390   -0.8970
       4    -11.5530   -2.1459    1.0390  162.8865   -0.6912  -13.6808
       5     -2.1459  -11.5530    1.0390   -0.6912  162.8865  -13.6808
       6      0.5618    0.5618   -0.8970  -13.6808  -13.6808  164.1581
-------------------------------------------------------------------------------


  Elastic Compliance Matrix: (Units=1/GPa)

-------------------------------------------------------------------------------
  Indices      1         2         3         4         5         6    
-------------------------------------------------------------------------------
       1    0.003700 -0.001136 -0.001134  0.000255 -0.000023  0.000004
       2   -0.001136  0.003700 -0.001134 -0.000023  0.000255  0.000004
       3   -0.001134 -0.001134  0.003716 -0.000119 -0.000119  0.000008
       4    0.000255 -0.000023 -0.000119  0.006202  0.000073  0.000521
       5   -0.000023  0.000255 -0.000119  0.000073  0.006202  0.000521
       6    0.000004  0.000004  0.000008  0.000521  0.000521  0.006179
-------------------------------------------------------------------------------

  Mechanical properties :

-------------------------------------------------------------------------------
  Convention :                    Reuss         Voigt         Hill
-------------------------------------------------------------------------------
  Bulk  Modulus (GPa)     =     232.13242     232.35707     232.24474
  Shear Modulus (GPa)     =     131.77904     139.41424     135.59664
-------------------------------------------------------------------------------
  Velocity S-wave (km/s)  =       6.09139       6.26538       6.17900
  Velocity P-wave (km/s)  =      10.71611      10.85195      10.78424
-------------------------------------------------------------------------------
  Compressibility (1/GPa) =    0.00430789
-------------------------------------------------------------------------------
  Stress axis :                     x             y             z
-------------------------------------------------------------------------------
  Youngs Moduli (GPa)     =     270.28713     270.28713     269.07917
-------------------------------------------------------------------------------
  Poissons Ratio (x)      =                     0.30704       0.30514
  Poissons Ratio (y)      =       0.30704                     0.30514
  Poissons Ratio (z)      =       0.30651       0.30651
-------------------------------------------------------------------------------


  Piezoelectric Strain Matrix: (Units=C/m**2)

-------------------------------------------------------------------------------
  Indices      1         2         3         4         5         6    
-------------------------------------------------------------------------------
       x     0.00000  -0.00000  -0.00000  -0.00000  -0.00000   0.00000
       y     0.00000  -0.00000   0.00000  -0.00000  -0.00000   0.00000
       z    -0.00000   0.00000   0.00000  -0.00000  -0.00000   0.00000
-------------------------------------------------------------------------------


  Piezoelectric Stress Matrix: (Units=10**-11 C/N)

-------------------------------------------------------------------------------
  Indices      1         2         3         4         5         6    
-------------------------------------------------------------------------------
       x     0.00000  -0.00000  -0.00000  -0.00000  -0.00000   0.00000
       y     0.00000  -0.00000   0.00000  -0.00000  -0.00000   0.00000
       z    -0.00000  -0.00000   0.00000  -0.00000  -0.00000  -0.00000
-------------------------------------------------------------------------------


  Static dielectric constant tensor : 

-------------------------------------------------------------------------------
              x         y         z
-------------------------------------------------------------------------------
       x     7.77457   0.01062   0.10961
       y     0.01062   7.77457   0.10961
       z     0.10961   0.10961   7.88565
--------------------------------------------------------------------------------

  Static refractive indices : 

-------------------------------------------------------------------------------
    1 =    2.76992      2 =    2.78639      3 =    2.82814
-------------------------------------------------------------------------------


  Phonon Calculation : 

  Number of k points for this configuration =        1

--------------------------------------------------------------------------------
  K point      1 =   0.000000  0.000000  0.000000  Weight =    1.000
--------------------------------------------------------------------------------

  Frequencies (cm-1) [NB: Negative implies an imaginary mode]:

   -0.00    0.00    0.00  241.99  241.99  243.86  243.86  332.75  332.75
  342.06  345.13  355.04  355.04  355.45  355.45  389.55  389.55  393.25
  400.01  402.74  425.97  425.97  427.06  427.06  450.40  450.40  453.67
  453.67  453.68  453.68  455.99  458.28  462.82  462.82  474.52  474.52
  488.72  489.99  489.99  609.56  609.56  610.14  610.14  798.98  798.98
  799.76  968.01  968.01


--------------------------------------------------------------------------------
  Phonon properties (per mole of unit cells): Temperature =      0.000 K
--------------------------------------------------------------------------------
  Zero point energy            =        1.312555 eV
--------------------------------------------------------------------------------

  Time to end of optimisation =       0.0690 seconds


################################################################################
#  Output for cell point     4                                                 #
################################################################################


  Components of energy : 

--------------------------------------------------------------------------------
  Interatomic potentials     =          53.22549574 eV    
  Monopole - monopole (real) =        -162.83666521 eV    
  Monopole - monopole (recip)=        -218.12998180 eV    
  Monopole - monopole (total)=        -380.96664701 eV    
--------------------------------------------------------------------------------
  Total lattice energy       =        -327.74115128 eV    
--------------------------------------------------------------------------------
  Total lattice energy       =          -31622.0111 kJ/(mole unit cells)
--------------------------------------------------------------------------------


  Number of variables =       48

  Maximum number of calculations  =          1000
  Maximum Hessian update interval =            10
  Maximum step size               =   1.000000000
  Maximum parameter tolerance     =   0.000010000
  Maximum function  tolerance     =   0.000010000
  Maximum gradient  tolerance     =   0.001000000
  Maximum gradient  component     =   0.010000000

  Symmetry not applied to optimisation

  Cell parameters to be optimised directly

  RFO method to be used

  DFP hessian update to be used

  Lower half triangular hessian to be used

  Start of bulk optimisation :

  Cycle:      0 Energy:      -327.741151  Gnorm:      0.000309  CPU:    0.072
  ** Hessian has required structure
  Cycle:      1 Energy:      -327.741184  Gnorm:      0.000000  CPU:    0.076
  ** Hessian has required structure


  **** Optimisation achieved ****


  Final energy =    -327.74118372 eV
  Final Gnorm  =       0.00000000

  Components of energy : 

--------------------------------------------------------------------------------
  Interatomic potentials     =          53.20359207 eV    
  Monopole - monopole (real) =        -162.82758001 eV    
  Monopole - monopole (recip)=        -218.11719578 eV    
  Monopole - monopole (total)=        -380.94477580 eV    
--------------------------------------------------------------------------------
  Total lattice energy       =        -327.74118372 eV    
--------------------------------------------------------------------------------
  Total lattice energy       =          -31622.0142 kJ/(mole unit cells)
--------------------------------------------------------------------------------

  Final fractional coordinates of atoms :

--------------------------------------------------------------------------------
   No.  Atomic        x           y          z          Radius
        Label       (Frac)      (Frac)     (Frac)       (Angs) 
--------------------------------------------------------------------------------
     1  Mg    c     0.000000    0.000000    0.000000    0.000000
     2  Mg    c    -0.000000   -0.000000    0.500000    0.000000
     3  Mg    c    -0.000000    0.500000    0.250000    0.000000
     4  Mg    c    -0.000000    0.500000    0.750000    0.000000
     5  Mg    c     0.500000   -0.000000    0.250000    0.000000
     6  Mg    c     0.500000   -0.000000    0.750000    0.000000
     7  Mg    c     0.500000    0.500000   -0.000000    0.000000
     8  Mg    c     0.500000    0.500000    0.500000    0.000000
     9  O     c     0.500000    0.500000    0.250000    0.000000
    10  O     c     0.500000    0.500000    0.750000    0.000000
    11  O     c     0.500000   -0.000000   -0.000000    0.000000
    12  O     c     0.500000   -0.000000    0.500000    0.000000
    13  O     c    -0.000000    0.500000   -0.000000    0.000000
    14  O     c    -0.000000    0.500000    0.500000    0.000000
    15  O     c    -0.000000   -0.000000    0.250000    0.000000
    16  O     c    -0.000000   -0.000000    0.750000    0.000000
--------------------------------------------------------------------------------

  Final Cartesian lattice vectors (Angstroms) :

        4.223484    0.000000    0.000000
        0.000000    4.223484    0.000000
       -0.295255   -0.295255    8.449844


  Final cell parameters and derivatives :

--------------------------------------------------------------------------------
       a            4.223484 Angstrom     dE/a         0.000000 eV/Ang
       b            4.223484 Angstrom     dE/b         0.000000 eV/Ang
       c            8.460154 Angstrom     dE/c         0.000000 eV/Ang
       alpha       92.000000 Degrees      dE/alpha     0.000000 eV/Deg
       beta        92.000000 Degrees      dE/beta      0.000000 eV/Deg
       gamma       90.000000 Degrees      dE/gamma     0.000000 eV/Deg
--------------------------------------------------------------------------------

  Primitive cell volume =           150.726795 Angs**3

  Density of cell =      3.552780 g/cm**3

  Non-primitive cell volume =           150.726795 Angs**3


  Final internal derivatives :

--------------------------------------------------------------------------------
   No.  Atomic          a             b             c           Radius
        Label          (eV)          (eV)          (eV)        (eV/Angs)
--------------------------------------------------------------------------------
      1 Mg    c       0.000000      0.000000      0.000000      0.000000
      2 Mg    c      -0.000000     -0.000000     -0.000000      0.000000
      3 Mg    c      -0.000000     -0.000000      0.000000      0.000000
      4 Mg    c      -0.000000      0.000000      0.000000      0.000000
      5 Mg    c       0.000000      0.000000      0.000000      0.000000
      6 Mg    c       0.000000     -0.000000      0.000000      0.000000
      7 Mg    c       0.000000      0.000000     -0.000000      0.000000
      8 Mg    c       0.000000     -0.000000     -0.000000      0.000000
      9 O     c       0.000000      0.000000     -0.000000      0.000000
     10 O     c       0.000000      0.000000      0.000000      0.000000
[...]

  Cell parameters to be optimised directly

  RFO method to be used

  DFP hessian update to be used

  Lower half triangular hessian to be used

  Start of bulk optimisation :

  Cycle:      0 Energy:      -325.341719  Gnorm:      0.009193  CPU:    1.277
  ** Hessian has required structure
  Cycle:      1 Energy:      -325.346432  Gnorm:      0.000064  CPU:    1.288
  ** Hessian has required structure


  **** Optimisation achieved ****


  Final energy =    -325.34643242 eV
  Final Gnorm  =       0.00006485

  Components of energy : 

--------------------------------------------------------------------------------
  Interatomic potentials     =          52.86292412 eV    
  Monopole - monopole (real) =        -159.85470202 eV    
  Monopole - monopole (recip)=        -218.35465452 eV    
  Monopole - monopole (total)=        -378.20935654 eV    
--------------------------------------------------------------------------------
  Total lattice energy       =        -325.34643242 eV    
--------------------------------------------------------------------------------
  Total lattice energy       =          -31390.9574 kJ/(mole unit cells)
--------------------------------------------------------------------------------

  Final fractional coordinates of atoms :

--------------------------------------------------------------------------------
   No.  Atomic        x           y          z          Radius
        Label       (Frac)      (Frac)     (Frac)       (Angs) 
--------------------------------------------------------------------------------
     1  Mg    c     0.000000    0.000000    0.000000    0.000000
     2  Mg    c     0.250000    0.250000    0.500000    0.000000
     3  Mg    c     0.125000    0.625000    0.250000    0.000000
     4  Mg    c     0.375000    0.875000    0.750000    0.000000
     5  Mg    c     0.625000    0.125000    0.250000    0.000000
     6  Mg    c     0.875000    0.375000    0.750000    0.000000
     7  Mg    c     0.500000    0.500000   -0.000000    0.000000
     8  Mg    c     0.750000    0.750000    0.500000    0.000000
     9  O     c     0.625000    0.625000    0.250000    0.000000
    10  O     c     0.875000    0.875000    0.750000    0.000000
    11  O     c     0.500000   -0.000000   -0.000000    0.000000
    12  O     c     0.750000    0.250000    0.500000    0.000000
    13  O     c    -0.000000    0.500000   -0.000000    0.000000
    14  O     c     0.250000    0.750000    0.500000    0.000000
    15  O     c     0.125000    0.125000    0.250000    0.000000
    16  O     c     0.375000    0.375000    0.750000    0.000000
--------------------------------------------------------------------------------

  Final Cartesian lattice vectors (Angstroms) :

        4.320687    0.000000    0.000000
        0.000000    4.320687    0.000000
       -3.143173   -3.143173    8.043473


  Final cell parameters and derivatives :

--------------------------------------------------------------------------------
       a            4.320687 Angstrom     dE/a         0.000977 eV/Ang
       b            4.320687 Angstrom     dE/b         0.000977 eV/Ang
       c            9.190023 Angstrom     dE/c        -0.002790 eV/Ang
       alpha      110.000000 Degrees      dE/alpha     0.000000 eV/Deg
       beta       110.000000 Degrees      dE/beta      0.000000 eV/Deg
       gamma       90.000000 Degrees      dE/gamma     0.000000 eV/Deg
--------------------------------------------------------------------------------

  Primitive cell volume =           150.158263 Angs**3

  Density of cell =      3.566232 g/cm**3

  Non-primitive cell volume =           150.158263 Angs**3


  Final internal derivatives :

--------------------------------------------------------------------------------
   No.  Atomic          a             b             c           Radius
        Label          (eV)          (eV)          (eV)        (eV/Angs)
--------------------------------------------------------------------------------
      1 Mg    c       0.000000      0.000000      0.000000      0.000000
      2 Mg    c      -0.000000     -0.000000     -0.000000      0.000000
      3 Mg    c       0.000000      0.000000     -0.000000      0.000000
      4 Mg    c       0.000000     -0.000000     -0.000000      0.000000
      5 Mg    c       0.000000      0.000000     -0.000000      0.000000
      6 Mg    c      -0.000000      0.000000     -0.000000      0.000000
      7 Mg    c       0.000000      0.000000     -0.000000      0.000000
      8 Mg    c       0.000000      0.000000     -0.000000      0.000000
      9 O     c      -0.000000     -0.000000      0.000000      0.000000
     10 O     c      -0.000000     -0.000000     -0.000000      0.000000
     11 O     c       0.000000     -0.000000      0.000000      0.000000
     12 O     c       0.000000      0.000000      0.000000      0.000000
     13 O     c      -0.000000      0.000000      0.000000      0.000000
     14 O     c       0.000000      0.000000      0.000000      0.000000
     15 O     c      -0.000000     -0.000000     -0.000000      0.000000
     16 O     c       0.000000      0.000000     -0.000000      0.000000
--------------------------------------------------------------------------------
  Maximum abs         0.000000      0.000000      0.000000      0.000000
--------------------------------------------------------------------------------


  Born effective charge tensors : 

-------------------------------------------------------------------------------
  Atom             x           y             z
-------------------------------------------------------------------------------
    1 Mg    x       2.0000      0.0000      0.0000
            y       0.0000      2.0000      0.0000
            z       0.0000      0.0000      2.0000
-------------------------------------------------------------------------------
    2 Mg    x       2.0000      0.0000      0.0000
            y       0.0000      2.0000      0.0000
            z       0.0000      0.0000      2.0000
-------------------------------------------------------------------------------
    3 Mg    x       2.0000      0.0000      0.0000
            y       0.0000      2.0000      0.0000
            z       0.0000      0.0000      2.0000
-------------------------------------------------------------------------------
    4 Mg    x       2.0000      0.0000      0.0000
            y       0.0000      2.0000      0.0000
            z       0.0000      0.0000      2.0000
-------------------------------------------------------------------------------
    5 Mg    x       2.0000      0.0000      0.0000
            y       0.0000      2.0000      0.0000
            z       0.0000      0.0000      2.0000
-------------------------------------------------------------------------------
    6 Mg    x       2.0000      0.0000      0.0000
            y       0.0000      2.0000      0.0000
            z       0.0000      0.0000      2.0000
-------------------------------------------------------------------------------
    7 Mg    x       2.0000      0.0000      0.0000
            y       0.0000      2.0000      0.0000
            z       0.0000      0.0000      2.0000
-------------------------------------------------------------------------------
    8 Mg    x       2.0000      0.0000      0.0000
            y       0.0000      2.0000      0.0000
            z       0.0000      0.0000      2.0000
-------------------------------------------------------------------------------
    9 O     x      -2.0000      0.0000      0.0000
            y       0.0000     -2.0000      0.0000
            z       0.0000      0.0000     -2.0000
-------------------------------------------------------------------------------
   10 O     x      -2.0000      0.0000      0.0000
            y       0.0000     -2.0000      0.0000
            z       0.0000      0.0000     -2.0000
-------------------------------------------------------------------------------
   11 O     x      -2.0000      0.0000      0.0000
            y       0.0000     -2.0000      0.0000
            z       0.0000      0.0000     -2.0000
-------------------------------------------------------------------------------
   12 O     x      -2.0000      0.0000      0.0000
            y       0.0000     -2.0000      0.0000
            z       0.0000      0.0000     -2.0000
-------------------------------------------------------------------------------
   13 O     x      -2.0000      0.0000      0.0000
            y       0.0000     -2.0000      0.0000
            z       0.0000      0.0000     -2.0000
-------------------------------------------------------------------------------
   14 O     x      -2.0000      0.0000      0.0000
            y       0.0000     -2.0000      0.0000
            z       0.0000      0.0000     -2.0000
-------------------------------------------------------------------------------
   15 O     x      -2.0000      0.0000      0.0000
            y       0.0000     -2.0000      0.0000
            z       0.0000      0.0000     -2.0000
-------------------------------------------------------------------------------
   16 O     x      -2.0000      0.0000      0.0000
            y       0.0000     -2.0000      0.0000
            z       0.0000      0.0000     -2.0000
-------------------------------------------------------------------------------




  Elastic Constant Matrix: (Units=GPa)

-------------------------------------------------------------------------------
  Indices      1         2         3         4         5         6    
-------------------------------------------------------------------------------
       1    306.1451  156.0530  174.4283  -53.5203   -5.3518   10.6414
       2    156.0530  306.1451  174.4283   -5.3518  -53.5203   10.6414
       3    174.4283  174.4283  463.3223  -12.9322  -12.9322  -15.0919
       4    -53.5203   -5.3518  -12.9322  170.7126  -10.6010  -62.9996
       5     -5.3518  -53.5203  -12.9322  -10.6010  170.7126  -62.9996
       6     10.6414   10.6414  -15.0919  -62.9996  -62.9996  163.4660
-------------------------------------------------------------------------------


  Elastic Compliance Matrix: (Units=1/GPa)

-------------------------------------------------------------------------------
  Indices      1         2         3         4         5         6    
-------------------------------------------------------------------------------
       1    0.005226 -0.002057 -0.001161  0.001492 -0.000443  0.000091
       2   -0.002057  0.005226 -0.001161 -0.000443  0.001492  0.000091
       3   -0.001161 -0.001161  0.003045 -0.000015 -0.000015  0.000420
       4    0.001492 -0.000443 -0.000015  0.007733  0.001703  0.003567
       5   -0.000443  0.001492 -0.000015  0.001703  0.007733  0.003567
       6    0.000091  0.000091  0.000420  0.003567  0.003567  0.008894
-------------------------------------------------------------------------------

  Mechanical properties :

-------------------------------------------------------------------------------
  Convention :                    Reuss         Voigt         Hill
-------------------------------------------------------------------------------
  Bulk  Modulus (GPa)     =     210.96159     231.71465     221.33812
  Shear Modulus (GPa)     =     103.74523     139.02512     121.38518
-------------------------------------------------------------------------------
  Velocity S-wave (km/s)  =       5.39361       6.24370       5.83416
  Velocity P-wave (km/s)  =       9.89663      10.81448      10.36572
-------------------------------------------------------------------------------
  Compressibility (1/GPa) =    0.00474020
-------------------------------------------------------------------------------
  Stress axis :                     x             y             z
-------------------------------------------------------------------------------
  Youngs Moduli (GPa)     =     191.33598     191.33598     328.38138
-------------------------------------------------------------------------------
  Poissons Ratio (x)      =                     0.39361       0.38121
  Poissons Ratio (y)      =       0.39361                     0.38121
  Poissons Ratio (z)      =       0.22212       0.22212
-------------------------------------------------------------------------------


  Piezoelectric Strain Matrix: (Units=C/m**2)

-------------------------------------------------------------------------------
  Indices      1         2         3         4         5         6    
-------------------------------------------------------------------------------
       x     0.00000   0.00000  -0.00000  -0.00000  -0.00000  -0.00000
       y     0.00000   0.00000  -0.00000  -0.00000  -0.00000  -0.00000
       z     0.00000   0.00000   0.00000  -0.00000  -0.00000  -0.00000
-------------------------------------------------------------------------------


  Piezoelectric Stress Matrix: (Units=10**-11 C/N)

-------------------------------------------------------------------------------
  Indices      1         2         3         4         5         6    
-------------------------------------------------------------------------------
       x     0.00000  -0.00000  -0.00000   0.00000  -0.00000  -0.00000
       y    -0.00000   0.00000  -0.00000  -0.00000   0.00000  -0.00000
       z     0.00000   0.00000  -0.00000  -0.00000  -0.00000  -0.00000
-------------------------------------------------------------------------------


  Static dielectric constant tensor : 

-------------------------------------------------------------------------------
              x         y         z
-------------------------------------------------------------------------------
       x    11.99456   0.58633   1.11710
       y     0.58633  11.99456   1.11710
       z     1.11710   1.11710   5.40395
--------------------------------------------------------------------------------

  Static refractive indices : 

-------------------------------------------------------------------------------
    1 =    2.25202      2 =    3.37761      3 =    3.59350
-------------------------------------------------------------------------------


  Phonon Calculation : 

  Number of k points for this configuration =        1

--------------------------------------------------------------------------------
  K point      1 =   0.000000  0.000000  0.000000  Weight =    1.000
--------------------------------------------------------------------------------

  Frequencies (cm-1) [NB: Negative implies an imaginary mode]:

   -0.00    0.00    0.00  234.36  234.36  263.81  263.81  302.03  314.68
  323.13  334.24  334.24  334.24  334.24  347.95  347.95  363.04  369.41
  369.41  369.41  369.41  374.47  374.47  384.11  416.99  416.99  416.99
  416.99  425.31  425.31  438.86  470.05  470.05  470.05  470.05  516.63
  559.40  559.40  559.40  559.40  581.31  752.59  752.59  752.59  752.59
  780.51  982.79  982.79


--------------------------------------------------------------------------------
  Phonon properties (per mole of unit cells): Temperature =      0.000 K
--------------------------------------------------------------------------------
  Zero point energy            =        1.293929 eV
--------------------------------------------------------------------------------

  Time to end of optimisation =       1.3224 seconds


  Final energies for configurations from scan_cell option:

--------------------------------------------------------------------------------
    Cell scan step number                           Energy (eV)      Opt OK?    
--------------------------------------------------------------------------------
             0                                     -327.93171735          T
             1                                     -327.92002565          T
             2                                     -327.88494858          T
             3                                     -327.82410344          T
             4                                     -327.74118372          T
             5                                     -327.63500423          T
             6                                     -327.50562077          T
             7                                     -327.35435181          T
             8                                     -327.18004345          T
             9                                     -326.98282510          T
            10                                     -326.76285854          T
            11                                     -326.52034525          T
            12                                     -326.25553592          T
            13                                     -325.96874232          T
            14                                     -325.66035317          T
            15                                     -325.33085526          T
            16                                     -324.98086010          T
            17                                     -324.61053912          T
            18                                     -324.22210310          T
            19                                     -323.81619766          T
            20                                     -323.39447413          T
            21                                     -322.95911422          T
            22                                     -322.51305548          T
            23                                     -322.06035302          T
            24                                     -327.78908550          T
            25                                     -327.86211261          T
            26                                     -327.91009550          T
            27                                     -327.93075056          T
            28                                     -327.92426789          T
            29                                     -327.88962997          T
            30                                     -327.82449854          F
            31                                     -327.72820593          T
            32                                     -327.60184719          T
            33                                     -327.44447335          T
            34                                     -327.25254395          T
            35                                     -327.02745938          T
            36                                     -326.76687358          T
            37                                     -326.46965847          T
            38                                     -326.13465318          T
            39                                     -325.76065898          T
            40                                     -325.34643242          T
--------------------------------------------------------------------------------


  Peak dynamic memory used =       1.88 MB 


  Timing analysis for GULP :

--------------------------------------------------------------------------------
  Task / Subroutine                                          Time (Seconds)
--------------------------------------------------------------------------------
  Calculation of reciprocal space energy and derivatives          0.1293
  Calculation of real space energy and derivatives                1.1184
  Calculation of phonons                                          0.1267
  Calculation and manipulation of Hessian matrix                  0.0486
  Calculation of matrix inversion                                 0.0005
  Global summation overhead                                       0.0004
--------------------------------------------------------------------------------
  Total CPU time                                                  1.3225
--------------------------------------------------------------------------------


  Dump file written as example65.res


  Job Finished at 11:59.35  8th July       2020                               

