********************************************************************************
*                       GENERAL UTILITY LATTICE PROGRAM                        *
*                                 Julian Gale                                  *
*                       Curtin Institute for Computation                       *
*                    School of Molecular and Life Sciences                     *
*                    Curtin University, Western Australia                      *
********************************************************************************
* Version = 6.0.0 * Last modified =   7th July 2020                            *
********************************************************************************
*  optimise     - perform optimisation run                                     *
*  free_energy  - use Gibbs free energy instead of internal energy             *
*  zsisa        - only calculate free energy derivatives w.r.t. strain         *
*  conp         - constant pressure calculation                                *
********************************************************************************

  Job Started  at 11:50.14  8th July       2020                               

  Number of CPUs =     1

  Host name      = M-A0034725                              


  Total number of configurations input =      1

********************************************************************************
*  Input for Configuration =   1                                               *
********************************************************************************

  Formula = Si3O6                                                       

  Number of irreducible atoms/shells =       3


  Total number atoms/shells =      15

  Dimensionality = 3               :  Bulk   


  Symmetry :

  Crystal family                   :  Hexagonal   
  Crystal class  (Groth - 1921)    :  Trigonal Trapezohedral               

  Space group (noncentrosymmetric) :  P 31 2 1        

  Patterson group                  :  P -3 m 1 

  Cartesian lattice vectors (Angstroms) :

        4.914600    0.000000    0.000000
       -2.457300    4.256168    0.000000
        0.000000    0.000000    5.406000

  Cell parameters (Angstroms/Degrees):

  a =       4.9146    alpha =  90.0000
  b =       4.9146    beta  =  90.0000
  c =       5.4060    gamma = 120.0000

  Initial cell volume =         113.079278 Angs**3

  Shrinking factors =      5     5     5

  Temperature of configuration =   300.     K 

  Pressure of configuration =         0.000 GPa 

  Fractional coordinates of asymmetric unit :

--------------------------------------------------------------------------------
   No.  Atomic       x           y          z         Charge      Occupancy
        Label      (Frac)      (Frac)     (Frac)        (e)         (Frac)  
--------------------------------------------------------------------------------
      1 Si    c    0.469800 *  0.000000    0.333333     4.00000    1.000000    
      2 O     c    0.414500 *  0.266200 *  0.214430 *   0.86902    1.000000    
      3 O     s    0.433075 *  0.264909 *  0.205008 *  -2.86902    1.000000    
--------------------------------------------------------------------------------


  Constraints : 

--------------------------------------------------------------------------------
  Constraint no.      Unconstrained     Constrained    Coefficient    Offset
                         Variable         Variable
--------------------------------------------------------------------------------
           1              Strain 1        Strain 2       1.00000      0.0000
--------------------------------------------------------------------------------

  Brillouin zone sampling points :

--------------------------------------------------------------------------------
  Point number          x          y          z            Weight
--------------------------------------------------------------------------------
        1           0.100000   0.100000   0.100000     0.03200000
        2           0.100000   0.100000   0.300000     0.03200000
        3           0.100000   0.100000   0.500000     0.01600000
        4           0.300000   0.100000   0.100000     0.03200000
        5           0.300000   0.100000   0.300000     0.03200000
        6           0.300000   0.100000   0.500000     0.03200000
        7           0.300000   0.100000   0.700000     0.03200000
        8           0.300000   0.100000   0.900000     0.03200000
        9           0.300000   0.300000   0.100000     0.03200000
       10           0.300000   0.300000   0.300000     0.03200000
       11           0.300000   0.300000   0.500000     0.01600000
       12           0.500000   0.100000   0.100000     0.03200000
       13           0.500000   0.100000   0.300000     0.03200000
       14           0.500000   0.100000   0.500000     0.03200000
       15           0.500000   0.100000   0.700000     0.03200000
       16           0.500000   0.100000   0.900000     0.03200000
       17           0.500000   0.300000   0.100000     0.03200000
       18           0.500000   0.300000   0.300000     0.03200000
       19           0.500000   0.300000   0.500000     0.03200000
       20           0.500000   0.300000   0.700000     0.03200000
       21           0.500000   0.300000   0.900000     0.03200000
       22           0.500000   0.500000   0.100000     0.01600000
       23           0.500000   0.500000   0.300000     0.01600000
       24           0.500000   0.500000   0.500000     0.00800000
       25           0.700000   0.100000   0.100000     0.03200000
       26           0.700000   0.100000   0.300000     0.03200000
       27           0.700000   0.100000   0.500000     0.03200000
       28           0.700000   0.100000   0.700000     0.03200000
       29           0.700000   0.100000   0.900000     0.03200000
       30           0.700000   0.300000   0.100000     0.01600000
       31           0.700000   0.300000   0.300000     0.01600000
       32           0.700000   0.300000   0.500000     0.01600000
       33           0.700000   0.300000   0.700000     0.01600000
       34           0.700000   0.300000   0.900000     0.01600000
       35           0.900000   0.100000   0.100000     0.01600000
       36           0.900000   0.100000   0.300000     0.01600000
       37           0.900000   0.100000   0.500000     0.01600000
       38           0.900000   0.100000   0.700000     0.01600000
       39           0.900000   0.100000   0.900000     0.01600000
--------------------------------------------------------------------------------


********************************************************************************
*  General input information                                                   *
********************************************************************************

  Species output for all configurations : 

--------------------------------------------------------------------------------
  Species    Type    Atomic    Atomic    Charge       Radii (Angs)     Library
                     Number     Mass       (e)     Cova   Ionic  VDW   Symbol
--------------------------------------------------------------------------------
    Si       Core       14      28.09   4.000000   1.200  0.000  2.100          
    O        Core        8      16.00   0.869020   0.730  0.000  1.360          
    O        Shell       8       0.00  -2.869020   0.730  0.000  1.360          
--------------------------------------------------------------------------------


  Lattice summation method               =    Ewald          (3-D)
                                         =    Parry          (2-D)
                                         =    Saunders et al (1-D)
  Accuracy factor for lattice sums       =   12.000


  Analytic derivatives to be used

  Time limit = Infinity

  Maximum range for interatomic potentials =        12.000000 Angstroms

  Taper potentials to zero over   2.0000 Angstroms using polynomial

  General interatomic potentials :

--------------------------------------------------------------------------------
Atom  Types   Potential      Parameter       Value         Units   Cutoffs(Ang)
  1     2                                                            Min /  Max 
--------------------------------------------------------------------------------
Si   c O    s Buckingham    Buckingham A     1271.5144    eV        0.000 12.000
                            Buckingham rho  0.32052000    Ang       
                            Buckingham C     5.9061700    eV*Ang^6  
--------------------------------------------------------------------------------
O    s O    s Buckingham    Buckingham A     22764.000    eV        0.000 12.000
                            Buckingham rho  0.14900000    Ang       
                            Buckingham C     27.879000    eV*Ang^6  
--------------------------------------------------------------------------------
O    c O    s Spring (c-s)  Spring k 2       79.073994    eV*Ang^-2 0.000  0.800
                            Spring k 4       0.0000000    eV*Ang^-4 
--------------------------------------------------------------------------------
O    s O    s Harmonic      Harmonic k2      2.3027300    eV*Ang^-2 0.000  3.000
                            Harmonic r0      2.4335150    Ang       
                            Harmonic k3      0.0000000    eV*Ang^-3 
                            Harmonic k4      0.0000000    eV*Ang^-4 
--------------------------------------------------------------------------------

********************************************************************************
*  Output for configuration   1                                                *
********************************************************************************


  Components of free energy : 

--------------------------------------------------------------------------------
  Interatomic potentials     =         107.98221178 eV    
  Monopole - monopole (real) =        -231.68260780 eV    
  Monopole - monopole (recip)=        -259.08798688 eV    
  Monopole - monopole (total)=        -490.77059468 eV    
  Vibrational contribution   =           0.76059484 eV    
--------------------------------------------------------------------------------
  Total free energy          =        -382.02778806 eV    
--------------------------------------------------------------------------------
  Total free energy          =          -36859.8417 kJ/(mole unit cells)
--------------------------------------------------------------------------------


  Number of variables =        9

  Maximum number of calculations  =          1000
  Maximum Hessian update interval =            10
  Maximum step size               =   1.000000000
  Maximum parameter tolerance     =   0.000010000
  Maximum function  tolerance     =   0.000010000
  Maximum gradient  tolerance     =   0.001000000
  Maximum gradient  component     =   0.010000000

  Symmetry constrained optimisation

  Cell parameters to be optimised using strains

  Newton-Raphson optimiser to be used

  BFGS hessian update to be used

  Lower half triangular hessian to be used

  Dumpfile to be written after every cycle

  Start of bulk optimisation :

  Cycle:      0 Energy:      -382.027788  Gnorm:      2.984359  CPU:    0.698
  ** Hessian calculated **
  Cycle:      1 Energy:      -382.034439  Gnorm:      2.390180  CPU:    1.208
  Cycle:      2 Energy:      -382.038940  Gnorm:      1.869842  CPU:    1.705
  Cycle:      3 Energy:      -382.044500  Gnorm:      0.878841  CPU:    2.196
  Cycle:      4 Energy:      -382.045745  Gnorm:      0.409973  CPU:    2.695
  Cycle:      5 Energy:      -382.046091  Gnorm:      0.035334  CPU:    3.188
  Cycle:      6 Energy:      -382.046092  Gnorm:      0.021170  CPU:    3.675
  Cycle:      7 Energy:      -382.046091  Gnorm:      0.002716  CPU:    4.161


  **** Optimisation achieved ****


  Final free energy =    -382.04609238 eV
  Final Gnorm       =       0.00020404

  Components of free energy : 

--------------------------------------------------------------------------------
  Interatomic potentials     =         107.23662393 eV    
  Monopole - monopole (real) =        -230.66869829 eV    
  Monopole - monopole (recip)=        -259.37584741 eV    
  Monopole - monopole (total)=        -490.04454570 eV    
  Vibrational contribution   =           0.76182939 eV    
--------------------------------------------------------------------------------
  Total free energy          =        -382.04609238 eV    
--------------------------------------------------------------------------------
  Total free energy          =          -36861.6078 kJ/(mole unit cells)
--------------------------------------------------------------------------------

  Final asymmetric unit coordinates :

--------------------------------------------------------------------------------
   No.  Atomic        x           y           z         Radius
        Label       (Frac)      (Frac)      (Frac)       (Angs) 
--------------------------------------------------------------------------------
     1  Si    c     0.467956    0.000000    0.333333    0.000000
     2  O     c     0.413848    0.268433    0.214162    0.000000
     3  O     s     0.431628    0.267344    0.205133    0.000000
--------------------------------------------------------------------------------

  Final Cartesian lattice vectors (Angstroms) :

        4.906163    0.000000    0.000000
       -2.453082    4.248862    0.000000
        0.000000    0.000000    5.406516


  Final cell parameters and derivatives :

--------------------------------------------------------------------------------
       a            4.906163 Angstrom     dE/de1(xx)     0.000323 eV/strain
       b            4.906163 Angstrom     dE/de2(yy)     0.000000 eV/strain
       c            5.406516 Angstrom     dE/de3(zz)     0.000093 eV/strain
       alpha       90.000000 Degrees      dE/de4(yz)     0.000000 eV/strain
       beta        90.000000 Degrees      dE/de5(xz)     0.000000 eV/strain
       gamma      120.000000 Degrees      dE/de6(xy)     0.000000 eV/strain
--------------------------------------------------------------------------------

  Primitive cell volume =           112.702135 Angs**3

  Density of cell =      2.656118 g/cm**3

  Non-primitive cell volume =           112.702135 Angs**3


  Final internal derivatives :

--------------------------------------------------------------------------------
   No.  Atomic          a             b             c           Radius
        Label          (eV)          (eV)          (eV)        (eV/Angs)
--------------------------------------------------------------------------------
      1 Si    c      -0.000202      0.000000      0.000000      0.000000
      2 O     c      -0.000704      0.000204      0.000585      0.000000
      3 O     s       0.001322     -0.000750     -0.000174      0.000000
--------------------------------------------------------------------------------
  Maximum abs         0.001322      0.000750      0.000585      0.000000
--------------------------------------------------------------------------------


  Time to end of optimisation =       4.6463 seconds


  Peak dynamic memory used =       1.94 MB 


  Timing analysis for GULP :

--------------------------------------------------------------------------------
  Task / Subroutine                                          Time (Seconds)
--------------------------------------------------------------------------------
  Calculation of reciprocal space energy and derivatives          0.2534
  Calculation of real space energy and derivatives                1.5783
  Calculation of free energy and derivatives                      4.5775
  Calculation of matrix inversion                                 0.0028
  Symmetry generation of equivalent positions                     0.0003
--------------------------------------------------------------------------------
  Total CPU time                                                  4.6464
--------------------------------------------------------------------------------


  Dump file written as example25.grs


  Job Finished at 11:50.18  8th July       2020                               

