********************************************************************************
*                       GENERAL UTILITY LATTICE PROGRAM                        *
*                                 Julian Gale                                  *
*                       Curtin Institute for Computation                       *
*                    School of Molecular and Life Sciences                     *
*                    Curtin University, Western Australia                      *
********************************************************************************
* Version = 6.0.0 * Last modified =   7th July 2020                            *
********************************************************************************
*  optimise     - perform optimisation run                                     *
*  conp         - constant pressure calculation                                *
*  property     - calculate properties for final geometry                      *
********************************************************************************

  Job Started  at 11:35.08  8th July       2020                               

  Number of CPUs =     1

  Host name      = M-A0034725                              


  Total number of configurations input =      2

********************************************************************************
*  Input for Configuration =   1 : chabazite                                   *
********************************************************************************

  Formula = Si12O24                                                     

  Number of irreducible atoms/shells =       9


  Total number atoms/shells =      60

  Dimensionality = 3               :  Bulk   


  Symmetry :

  Crystal family                   :  Hexagonal   
  Crystal class  (Groth - 1921)    :  Ditrigonal Scalenohedral             

  Space group (centrosymmetric)    :  R -3 M          

  Patterson group                  :  R -3 m   

  Cartesian lattice vectors (Angstroms) :

        6.901286    3.984460    5.025094
       -6.901286    3.984460    5.025094
        0.000000   -7.968919    5.025094

  Cell parameters (Angstroms/Degrees):

  a =       9.4210    alpha =  94.2000
  b =       9.4210    beta  =  94.2000
  c =       9.4210    gamma =  94.2000

  Initial cell volume =         829.077085 Angs**3

  Temperature of configuration =   0.00     K 

  Pressure of configuration =         0.000 GPa 

  Fractional coordinates of asymmetric unit :

--------------------------------------------------------------------------------
   No.  Atomic       x           y          z         Charge      Occupancy
        Label      (Frac)      (Frac)     (Frac)        (e)         (Frac)  
--------------------------------------------------------------------------------
      1 Si    c    0.102192 *  0.331083 *  0.876169 *   4.00000    1.000000    
      2 O1    c    0.261344 *  0.738656    0.000000     0.86902    1.000000    
      3 O2    c    0.141729 *  0.858271    0.500000     0.86902    1.000000    
      4 O3    c    0.246729 *  0.246729    0.890290 *   0.86902    1.000000    
      5 O4    c    0.018968 *  0.018968    0.314454 *   0.86902    1.000000    
      6 O1    s    0.254283 *  0.745717    0.000000    -2.86902    1.000000    
      7 O2    s    0.135829 *  0.864171    0.500000    -2.86902    1.000000    
      8 O3    s    0.240510 *  0.240510    0.887279 *  -2.86902    1.000000    
      9 O4    s    0.012617 *  0.012617    0.318045 *  -2.86902    1.000000    
--------------------------------------------------------------------------------


  Constraints : 

--------------------------------------------------------------------------------
  Constraint no.      Unconstrained     Constrained    Coefficient    Offset
                         Variable         Variable
--------------------------------------------------------------------------------
           1              Strain 1        Strain 2       1.00000      0.0000
           2                 4 x             4 y         2.00000     -1.0000
           3                 5 x             5 y         2.00000     -1.0000
           4                 8 x             8 y         2.00000     -1.0000
           5                 9 x             9 y         2.00000     -1.0000
--------------------------------------------------------------------------------


********************************************************************************
*  Input for Configuration =   2 : quartz                                      *
********************************************************************************

  Formula = Si3O6                                                       

  Number of irreducible atoms/shells =       3


  Total number atoms/shells =      15

  Dimensionality = 3               :  Bulk   


  Symmetry :

  Crystal family                   :  Hexagonal   
  Crystal class  (Groth - 1921)    :  Trigonal Trapezohedral               

  Space group (noncentrosymmetric) :  P 31 2 1        

  Patterson group                  :  P -3 m 1 

  Cartesian lattice vectors (Angstroms) :

        4.914730    0.000000    0.000000
       -2.457365    4.256281    0.000000
        0.000000    0.000000    5.406570

  Cell parameters (Angstroms/Degrees):

  a =       4.9147    alpha =  90.0000
  b =       4.9147    beta  =  90.0000
  c =       5.4066    gamma = 120.0000

  Initial cell volume =         113.097184 Angs**3

  Temperature of configuration =   0.00     K 

  Pressure of configuration =         0.000 GPa 

  Fractional coordinates of asymmetric unit :

--------------------------------------------------------------------------------
   No.  Atomic       x           y          z         Charge      Occupancy
        Label      (Frac)      (Frac)     (Frac)        (e)         (Frac)  
--------------------------------------------------------------------------------
      1 Si    c    0.468200 *  0.000000    0.333333     4.00000    1.000000    
      2 O     c    0.413100 *  0.266100 *  0.213100 *   0.86902    1.000000    
      3 O     s    0.431522 *  0.266445 *  0.204492 *  -2.86902    1.000000    
--------------------------------------------------------------------------------


  Constraints : 

--------------------------------------------------------------------------------
  Constraint no.      Unconstrained     Constrained    Coefficient    Offset
                         Variable         Variable
--------------------------------------------------------------------------------
           1              Strain 1        Strain 2       1.00000      0.0000
--------------------------------------------------------------------------------


********************************************************************************
*  General input information                                                   *
********************************************************************************

  Species output for all configurations : 

--------------------------------------------------------------------------------
  Species    Type    Atomic    Atomic    Charge       Radii (Angs)     Library
                     Number     Mass       (e)     Cova   Ionic  VDW   Symbol
--------------------------------------------------------------------------------
    Si       Core       14      28.09   4.000000   1.200  0.000  2.100          
    O        Core        8      16.00   0.869020   0.730  0.000  1.360          
    O        Shell       8       0.00  -2.869020   0.730  0.000  1.360          
--------------------------------------------------------------------------------


  Lattice summation method               =    Ewald          (3-D)
                                         =    Parry          (2-D)
                                         =    Saunders et al (1-D)
  Accuracy factor for lattice sums       =   12.000


  Analytic derivatives to be used

  Time limit = Infinity

  Maximum range for interatomic potentials =    100000.000000 Angstroms

  General interatomic potentials :

--------------------------------------------------------------------------------
Atom  Types   Potential      Parameter       Value         Units   Cutoffs(Ang)
  1     2                                                            Min /  Max 
--------------------------------------------------------------------------------
Si   c O    s Buckingham    Buckingham A     1280.0000    eV        0.000 12.000
                            Buckingham rho  0.32052000    Ang       
                            Buckingham C     10.661580    eV*Ang^6  
--------------------------------------------------------------------------------
O    s O    s Buckingham    Buckingham A     22764.000    eV        0.000 12.000
                            Buckingham rho  0.14900000    Ang       
                            Buckingham C     27.880000    eV*Ang^6  
--------------------------------------------------------------------------------
O    c O    s Spring (c-s)  Spring k 2       74.920000    eV*Ang^-2 0.000  0.800
                            Spring k 4       0.0000000    eV*Ang^-4 
--------------------------------------------------------------------------------

  General Three-body potentials :

--------------------------------------------------------------------------------
  Atoms       Potential      Parameter       Value         Units   Cutoffs(Ang)
  1 / 2 / 3                                                          Min /  Max 
--------------------------------------------------------------------------------
Si    core    Harmonic      Three-body cnst  2.0972400    eV*rad^-2 0.000  2.200
O     shel                  Three-body angl  109.47000    degrees   0.000  2.200
O     shel                  Three-body k4    0.0000000    eV*rad^-4 0.000  3.800
                            Three-body k3    0.0000000    eV*rad^-3 
--------------------------------------------------------------------------------

********************************************************************************
*  Output for configuration   1 : chabazite                                    *
********************************************************************************


  Components of energy : 

--------------------------------------------------------------------------------
  Interatomic potentials     =         382.05713877 eV    
  Three-body potentials      =           0.37924670 eV    
  Monopole - monopole (real) =       -1046.64550280 eV    
  Monopole - monopole (recip)=        -878.42670077 eV    
  Monopole - monopole (total)=       -1925.07220357 eV    
--------------------------------------------------------------------------------
  Total lattice energy : 
    Primitive unit cell      =       -1542.63581809 eV    
    Non-primitive unit cell  =       -4627.90745426 eV    
--------------------------------------------------------------------------------
  Total lattice energy (in kJmol-1): 
    Primitive unit cell      =         -148840.7751 kJ/(mole unit cells)
    Non-primitive unit cell  =         -446522.3253 kJ/(mole unit cells)
--------------------------------------------------------------------------------


  Number of variables =       17

  Maximum number of calculations  =          1000
  Maximum Hessian update interval =            10
  Maximum step size               =   1.000000000
  Maximum parameter tolerance     =   0.000010000
  Maximum function  tolerance     =   0.000010000
  Maximum gradient  tolerance     =   0.001000000
  Maximum gradient  component     =   0.010000000

  Symmetry constrained optimisation

  Symmetry used for second derivatives

  Cell parameters to be optimised using strains

  Newton-Raphson optimiser to be used

  BFGS hessian update to be used

  Lower half triangular hessian to be used

  Start of bulk optimisation :

  Cycle:      0 Energy:     -1542.635818  Gnorm:      4.026051  CPU:    0.016
  ** Hessian calculated **
  Cycle:      1 Energy:     -1543.790174  Gnorm:      0.865351  CPU:    0.027
  Cycle:      2 Energy:     -1543.801013  Gnorm:      0.712149  CPU:    0.036
  Cycle:      3 Energy:     -1543.805071  Gnorm:      0.214961  CPU:    0.047
  Cycle:      4 Energy:     -1543.805258  Gnorm:      0.094421  CPU:    0.057
  Cycle:      5 Energy:     -1543.805283  Gnorm:      0.022215  CPU:    0.065
  Cycle:      6 Energy:     -1543.805284  Gnorm:      0.002212  CPU:    0.073


  **** Optimisation achieved ****


  Final energy =   -1543.80528441 eV
  Final Gnorm  =       0.00014231

  Components of energy : 

--------------------------------------------------------------------------------
  Interatomic potentials     =         420.75621339 eV    
  Three-body potentials      =           0.18647177 eV    
  Monopole - monopole (real) =       -1063.17978943 eV    
  Monopole - monopole (recip)=        -901.56818014 eV    
  Monopole - monopole (total)=       -1964.74796957 eV    
--------------------------------------------------------------------------------
  Total lattice energy : 
    Primitive unit cell      =       -1543.80528441 eV    
    Non-primitive unit cell  =       -4631.41585324 eV    
--------------------------------------------------------------------------------
  Total lattice energy (in kJmol-1): 
    Primitive unit cell      =         -148953.6107 kJ/(mole unit cells)
    Non-primitive unit cell  =         -446860.8322 kJ/(mole unit cells)
--------------------------------------------------------------------------------

  Final asymmetric unit coordinates :

--------------------------------------------------------------------------------
   No.  Atomic        x           y           z         Radius
        Label       (Frac)      (Frac)      (Frac)       (Angs) 
--------------------------------------------------------------------------------
     1  Si    c     0.106412    0.333416    0.878494    0.000000
     2  O1    c     0.259468    0.740532    0.000000    0.000000
     3  O2    c     0.150466    0.849534    0.500000    0.000000
     4  O3    c     0.254372    0.254372    0.897416    0.000000
     5  O4    c     0.027138    0.027138    0.323371    0.000000
     6  O1    s     0.252238    0.747762    0.000000    0.000000
     7  O2    s     0.142167    0.857833    0.500000    0.000000
     8  O3    s     0.246451    0.246451    0.893024    0.000000
     9  O4    s     0.019429    0.019429    0.325656    0.000000
--------------------------------------------------------------------------------

  Final Cartesian lattice vectors (Angstroms) :

        6.758987    3.902303    4.843738
       -6.758987    3.902303    4.843738
        0.000000   -7.804606    4.843738


  Final cell parameters and derivatives :

--------------------------------------------------------------------------------
       a            9.185514 Angstrom     dE/de1(xx)     0.000175 eV/strain
       b            9.185514 Angstrom     dE/de2(yy)     0.000000 eV/strain
       c            9.185514 Angstrom     dE/de3(zz)    -0.000000 eV/strain
       alpha       94.754982 Degrees      dE/de4(yz)     0.000000 eV/strain
       beta        94.754982 Degrees      dE/de5(xz)     0.000000 eV/strain
       gamma       94.754982 Degrees      dE/de6(xy)     0.000000 eV/strain
--------------------------------------------------------------------------------

  Primitive cell volume =           766.539420 Angs**3

  Density of cell =      1.562086 g/cm**3

  Non-primitive lattice parameters :

  a    =    13.517975  b   =    13.517975  c    =    14.531213
  alpha=    90.000000  beta=    90.000000  gamma=   120.000000

  Non-primitive cell volume =          2299.618260 Angs**3


  Final internal derivatives :

--------------------------------------------------------------------------------
   No.  Atomic          a             b             c           Radius
        Label          (eV)          (eV)          (eV)        (eV/Angs)
--------------------------------------------------------------------------------
      1 Si    c      -0.000231     -0.000529     -0.001969      0.000000
      2 O1    c      -0.000650      0.000000      0.000000      0.000000
      3 O2    c      -0.000120      0.000000      0.000000      0.000000
      4 O3    c       0.000221      0.000000      0.000039      0.000000
      5 O4    c      -0.000392      0.000000      0.000036      0.000000
      6 O1    s       0.000118      0.000000      0.000000      0.000000
      7 O2    s       0.000617      0.000000      0.000000      0.000000
      8 O3    s       0.000469      0.000000     -0.000217      0.000000
      9 O4    s       0.000504      0.000000      0.000240      0.000000
--------------------------------------------------------------------------------
  Maximum abs         0.000650      0.000529      0.001969      0.000000
--------------------------------------------------------------------------------


  Born effective charge tensors : 

-------------------------------------------------------------------------------
  Atom             x           y             z
-------------------------------------------------------------------------------
    1 Si    x       3.5096     -0.0150     -0.4183
            y      -0.0187      2.9019      0.1046
            z      -0.3335      0.2825      3.2259
-------------------------------------------------------------------------------
    2 O1    x      -1.0827     -0.0000      0.0000
            y       0.0000     -1.1401     -0.2328
            z       0.0000     -0.0553     -2.4738
-------------------------------------------------------------------------------
    3 O2    x      -1.1187      0.0000     -0.0000
            y       0.0000     -2.2177      0.9234
            z      -0.0000      1.0010     -1.6893
-------------------------------------------------------------------------------
    4 O3    x      -2.7550      0.0000      0.0000
            y      -0.0000     -0.9795     -0.0477
            z      -0.0000     -0.0819     -1.1472
-------------------------------------------------------------------------------
    5 O4    x      -2.3679      0.0000     -0.0000
            y      -0.0000     -1.1614      0.1416
            z       0.0000      0.1279     -1.1415
-------------------------------------------------------------------------------




  Elastic Constant Matrix: (Units=GPa)

-------------------------------------------------------------------------------
  Indices      1         2         3         4         5         6    
-------------------------------------------------------------------------------
       1    121.3092   70.1316   63.8976    6.0976   -0.0000   -0.0000
       2     70.1316  121.3092   63.8976   -6.0976    0.0000    0.0000
       3     63.8976   63.8976   69.5857    0.0000   -0.0000   -0.0000
       4      6.0976   -6.0976    0.0000   27.8599   -0.0000   -0.0000
       5     -0.0000    0.0000   -0.0000   -0.0000   27.8599    6.0976
       6     -0.0000    0.0000   -0.0000   -0.0000    6.0976   25.5888
-------------------------------------------------------------------------------


  Elastic Compliance Matrix: (Units=1/GPa)

-------------------------------------------------------------------------------
  Indices      1         2         3         4         5         6    
-------------------------------------------------------------------------------
       1    0.017056 -0.003559 -0.012394 -0.004512 -0.000000  0.000000
       2   -0.003559  0.017056 -0.012394  0.004512 -0.000000 -0.000000
       3   -0.012394 -0.012394  0.037132 -0.000000  0.000000 -0.000000
       4   -0.004512  0.004512 -0.000000  0.037869  0.000000 -0.000000
       5   -0.000000 -0.000000  0.000000  0.000000  0.037869 -0.009024
       6    0.000000 -0.000000 -0.000000 -0.000000 -0.009024  0.041230
-------------------------------------------------------------------------------

  Mechanical properties :

-------------------------------------------------------------------------------
  Convention :                    Reuss         Voigt         Hill
-------------------------------------------------------------------------------
  Bulk  Modulus (GPa)     =      68.72313      78.67306      73.69810
  Shear Modulus (GPa)     =      20.01973      23.88021      21.94997
-------------------------------------------------------------------------------
  Velocity S-wave (km/s)  =       3.57995       3.90991       3.74856
  Velocity P-wave (km/s)  =       7.81553       8.41114       8.11880
-------------------------------------------------------------------------------
  Compressibility (1/GPa) =    0.01455114
-------------------------------------------------------------------------------
  Stress axis :                     x             y             z
-------------------------------------------------------------------------------
  Youngs Moduli (GPa)     =      58.63092      58.63092      26.93120
-------------------------------------------------------------------------------
  Poissons Ratio (x)      =                     0.20867       0.33377
  Poissons Ratio (y)      =       0.20867                     0.33377
  Poissons Ratio (z)      =       0.72664       0.72664
-------------------------------------------------------------------------------


  Piezoelectric Strain Matrix: (Units=C/m**2)

-------------------------------------------------------------------------------
  Indices      1         2         3         4         5         6    
-------------------------------------------------------------------------------
       x     0.00000  -0.00000  -0.00000  -0.00000   0.00000   0.00000
       y     0.00000   0.00000  -0.00000   0.00000   0.00000  -0.00000
       z     0.00000   0.00000  -0.00000  -0.00000  -0.00000   0.00000
-------------------------------------------------------------------------------


  Piezoelectric Stress Matrix: (Units=10**-11 C/N)

-------------------------------------------------------------------------------
  Indices      1         2         3         4         5         6    
-------------------------------------------------------------------------------
       x     0.00000   0.00000  -0.00000  -0.00000   0.00000   0.00000
       y     0.00000   0.00000  -0.00000   0.00000   0.00000  -0.00000
       z     0.00000   0.00000  -0.00000  -0.00000  -0.00000   0.00000
-------------------------------------------------------------------------------


  Static dielectric constant tensor : 

-------------------------------------------------------------------------------
              x         y         z
-------------------------------------------------------------------------------
       x     2.95521  -0.00000  -0.00000
       y    -0.00000   2.95521   0.00000
       z    -0.00000   0.00000   2.99261
--------------------------------------------------------------------------------

  High frequency dielectric constant tensor : 

-------------------------------------------------------------------------------
              x         y         z
-------------------------------------------------------------------------------
       x     1.59761  -0.00000  -0.00000
       y    -0.00000   1.59761   0.00000
       z    -0.00000   0.00000   1.59900
-------------------------------------------------------------------------------

  Static refractive indices : 

-------------------------------------------------------------------------------
    1 =    1.71907      2 =    1.71907      3 =    1.72992
-------------------------------------------------------------------------------

  High frequency refractive indices : 

-------------------------------------------------------------------------------
    1 =    1.26397      2 =    1.26397      3 =    1.26452
-------------------------------------------------------------------------------


  Time to end of optimisation =       0.1330 seconds


********************************************************************************
*  Output for configuration   2 : quartz                                       *
********************************************************************************


  Components of energy : 

--------------------------------------------------------------------------------
  Interatomic potentials     =         103.20999232 eV    
  Three-body potentials      =           0.05739430 eV    
  Monopole - monopole (real) =        -110.50672066 eV    
  Monopole - monopole (recip)=        -379.16012035 eV    
  Monopole - monopole (total)=        -489.66684101 eV    
--------------------------------------------------------------------------------
  Total lattice energy       =        -386.39945439 eV    
--------------------------------------------------------------------------------
  Total lattice energy       =          -37281.6407 kJ/(mole unit cells)
--------------------------------------------------------------------------------


  Number of variables =        9

  Maximum number of calculations  =          1000
  Maximum Hessian update interval =            10
  Maximum step size               =   1.000000000
  Maximum parameter tolerance     =   0.000010000
  Maximum function  tolerance     =   0.000010000
  Maximum gradient  tolerance     =   0.001000000
  Maximum gradient  component     =   0.010000000

  Symmetry constrained optimisation

  Symmetry used for second derivatives

  Cell parameters to be optimised using strains

  Newton-Raphson optimiser to be used

  BFGS hessian update to be used

  Lower half triangular hessian to be used

  Start of bulk optimisation :

  Cycle:      0 Energy:      -386.399454  Gnorm:      3.533988  CPU:    0.134
  ** Hessian calculated **
  Cycle:      1 Energy:      -386.461390  Gnorm:      0.261481  CPU:    0.136
  Cycle:      2 Energy:      -386.462328  Gnorm:      0.111231  CPU:    0.138
  Cycle:      3 Energy:      -386.462851  Gnorm:      0.025946  CPU:    0.139


  **** Optimisation achieved ****


  Final energy =    -386.46285438 eV
  Final Gnorm  =       0.00074343

  Components of energy : 

--------------------------------------------------------------------------------
  Interatomic potentials     =         107.02229483 eV    
  Three-body potentials      =           0.04838418 eV    
  Monopole - monopole (real) =        -108.22539089 eV    
  Monopole - monopole (recip)=        -385.30814250 eV    
  Monopole - monopole (total)=        -493.53353339 eV    
--------------------------------------------------------------------------------
  Total lattice energy       =        -386.46285438 eV    
--------------------------------------------------------------------------------
  Total lattice energy       =          -37287.7578 kJ/(mole unit cells)
--------------------------------------------------------------------------------

  Final asymmetric unit coordinates :

--------------------------------------------------------------------------------
   No.  Atomic        x           y           z         Radius
        Label       (Frac)      (Frac)      (Frac)       (Angs) 
--------------------------------------------------------------------------------
     1  Si    c     0.463539    0.000000    0.333333    0.000000
     2  O     c     0.408011    0.278920    0.225109    0.000000
     3  O     s     0.428009    0.276249    0.213154    0.000000
--------------------------------------------------------------------------------

  Final Cartesian lattice vectors (Angstroms) :

        4.827074    0.000000    0.000000
       -2.413537    4.180369    0.000000
        0.000000    0.000000    5.337189


  Final cell parameters and derivatives :

--------------------------------------------------------------------------------
       a            4.827074 Angstrom     dE/de1(xx)     0.001418 eV/strain
       b            4.827074 Angstrom     dE/de2(yy)     0.000000 eV/strain
       c            5.337189 Angstrom     dE/de3(zz)    -0.001932 eV/strain
       alpha       90.000000 Degrees      dE/de4(yz)     0.000000 eV/strain
       beta        90.000000 Degrees      dE/de5(xz)     0.000000 eV/strain
       gamma      120.000000 Degrees      dE/de6(xy)     0.000000 eV/strain
--------------------------------------------------------------------------------

  Primitive cell volume =           107.698873 Angs**3

  Density of cell =      2.779510 g/cm**3

  Non-primitive cell volume =           107.698873 Angs**3


  Final internal derivatives :

--------------------------------------------------------------------------------
   No.  Atomic          a             b             c           Radius
        Label          (eV)          (eV)          (eV)        (eV/Angs)
--------------------------------------------------------------------------------
      1 Si    c       0.002937      0.000000      0.000000      0.000000
      2 O     c      -0.001724      0.004288      0.001075      0.000000
      3 O     s       0.002333     -0.001222     -0.000977      0.000000
--------------------------------------------------------------------------------
  Maximum abs         0.002937      0.004288      0.001075      0.000000
--------------------------------------------------------------------------------


  Born effective charge tensors : 

-------------------------------------------------------------------------------
  Atom             x           y             z
-------------------------------------------------------------------------------
    1 Si    x       3.1535      0.0000      0.0000
            y       0.0000      3.5630      0.3410
            z       0.0000     -0.1983      3.4588
-------------------------------------------------------------------------------
    2 O     x      -1.4075      0.3813     -0.2537
            y       0.3769     -1.9508      0.5354
            z      -0.1668      0.5949     -1.7294
-------------------------------------------------------------------------------




  Elastic Constant Matrix: (Units=GPa)

-------------------------------------------------------------------------------
  Indices      1         2         3         4         5         6    
-------------------------------------------------------------------------------
       1     95.1478   18.8307   20.0103  -14.4073    0.0000   -0.0000
       2     18.8307   95.1478   20.0103   14.4073   -0.0000   -0.0000
       3     20.0103   20.0103  116.9125   -0.0000    0.0000   -0.0000
       4    -14.4073   14.4073   -0.0000   50.2695    0.0000   -0.0000
       5      0.0000   -0.0000    0.0000    0.0000   50.2695  -14.4073
       6     -0.0000   -0.0000   -0.0000   -0.0000  -14.4073   38.1585
-------------------------------------------------------------------------------


  Elastic Compliance Matrix: (Units=1/GPa)

-------------------------------------------------------------------------------
  Indices      1         2         3         4         5         6    
-------------------------------------------------------------------------------
       1    0.012014 -0.002679 -0.001598  0.004211 -0.000000  0.000000
       2   -0.002679  0.012014 -0.001598 -0.004211  0.000000  0.000000
       3   -0.001598 -0.001598  0.009100 -0.000000  0.000000 -0.000000
       4    0.004211 -0.004211 -0.000000  0.022307 -0.000000  0.000000
       5   -0.000000  0.000000  0.000000 -0.000000  0.022307  0.008422
       6    0.000000  0.000000 -0.000000  0.000000  0.008422  0.029386
-------------------------------------------------------------------------------

  Mechanical properties :

-------------------------------------------------------------------------------
  Convention :                    Reuss         Voigt         Hill
-------------------------------------------------------------------------------
  Bulk  Modulus (GPa)     =      46.77540      47.21230      46.99385
  Shear Modulus (GPa)     =      39.68157      44.29663      41.98910
-------------------------------------------------------------------------------
  Velocity S-wave (km/s)  =       3.77842       3.99210       3.88673
  Velocity P-wave (km/s)  =       5.98865       6.18344       6.08683
-------------------------------------------------------------------------------
  Compressibility (1/GPa) =    0.02137876
-------------------------------------------------------------------------------
  Stress axis :                     x             y             z
-------------------------------------------------------------------------------
  Youngs Moduli (GPa)     =      83.23715      83.23715     109.88638
-------------------------------------------------------------------------------
  Poissons Ratio (x)      =                     0.22302       0.17556
  Poissons Ratio (y)      =       0.22302                     0.17556
  Poissons Ratio (z)      =       0.13299       0.13299
-------------------------------------------------------------------------------


  Piezoelectric Strain Matrix: (Units=C/m**2)

-------------------------------------------------------------------------------
  Indices      1         2         3         4         5         6    
-------------------------------------------------------------------------------
       x     2.68887  -2.68887  -0.00000  -1.42896   0.00000   0.00000
       y     0.00000  -0.00000  -0.00000   0.00000   1.42896  -2.68887
       z    -0.00000  -0.00000   0.00000   0.00000   0.00000  -0.00000
-------------------------------------------------------------------------------


  Piezoelectric Stress Matrix: (Units=10**-11 C/N)

-------------------------------------------------------------------------------
  Indices      1         2         3         4         5         6    
-------------------------------------------------------------------------------
       x     3.34906  -3.34906  -0.00000  -0.92290   0.00000   0.00000
       y     0.00000  -0.00000  -0.00000   0.00000   0.92290  -6.69812
       z    -0.00000  -0.00000   0.00000   0.00000   0.00000  -0.00000
-------------------------------------------------------------------------------


  Static dielectric constant tensor : 

-------------------------------------------------------------------------------
              x         y         z
-------------------------------------------------------------------------------
       x     4.78525  -0.00000  -0.00000
       y    -0.00000   4.78525   0.00000
       z    -0.00000   0.00000   5.05751
--------------------------------------------------------------------------------

  High frequency dielectric constant tensor : 

-------------------------------------------------------------------------------
              x         y         z
-------------------------------------------------------------------------------
       x     2.12554  -0.00000   0.00000
       y    -0.00000   2.12554  -0.00000
       z     0.00000  -0.00000   2.14916
-------------------------------------------------------------------------------

  Static refractive indices : 

-------------------------------------------------------------------------------
    1 =    2.18752      2 =    2.18752      3 =    2.24889
-------------------------------------------------------------------------------

  High frequency refractive indices : 

-------------------------------------------------------------------------------
    1 =    1.45792      2 =    1.45792      3 =    1.46600
-------------------------------------------------------------------------------


  Time to end of optimisation =       0.1459 seconds


  Peak dynamic memory used =       2.68 MB 


  Timing analysis for GULP :

--------------------------------------------------------------------------------
  Task / Subroutine                                          Time (Seconds)
--------------------------------------------------------------------------------
  Calculation of reciprocal space energy and derivatives          0.0087
  Calculation of reciprocal space energy using symmetry           0.0101
  Calculation of real space energy and derivatives                0.0440
  Calculation of real space energy using symmetry                 0.0686
  Calculation of three-body energy and derivatives                0.0037
  Symmetry generation of equivalent positions                     0.0014
--------------------------------------------------------------------------------
  Total CPU time                                                  0.1459
--------------------------------------------------------------------------------


  Job Finished at 11:35.08  8th July       2020                               

